MODEL 1
REMARK VINA RESULT:   -13.431      0.000      0.000
REMARK INTER + INTRA:         -13.431
REMARK INTER:                 -13.431
REMARK INTRA:                   0.000
REMARK UNBOUND:                 0.000
ROOT
REMARK  Name = prajmalium
REMARK                            x       y       z     vdW  Elec       q    Type
REMARK                         _______ _______ _______ _____ _____    ______ ____
ATOM      1  C   UNL     1      60.060  61.633  67.912  0.00  0.00    +0.000 C 
ATOM      2  C   UNL     1      60.288  61.844  68.677  0.00  0.00    +0.000 C 
ATOM      3  C   UNL     1      60.786  62.708  68.836  0.00  0.00    +0.000 C 
ATOM      4  N   UNL     1      61.168  63.330  69.108  0.00  0.00    +0.000 N 
ATOM      5  C   UNL     1      60.855  62.634  69.581  0.00  0.00    +0.000 C 
ATOM      6  C   UNL     1      60.849  62.379  70.484  0.00  0.00    +0.000 C 
ATOM      7  C   UNL     1      61.139  62.899  70.516  0.00  0.00    +0.000 C 
ATOM      8  C   UNL     1      60.592  62.001  70.150  0.00  0.00    +0.000 C 
ATOM      9  O   UNL     1      60.183  61.228  70.254  0.00  0.00    +0.000 OA
ATOM     10  C   UNL     1      60.530  62.133  69.236  0.00  0.00    +0.000 C 
ATOM     11  C   UNL     1      60.527  62.360  68.378  0.00  0.00    +0.000 C 
ATOM     12  C   UNL     1      60.981  63.161  68.472  0.00  0.00    +0.000 C 
ATOM     13  C   UNL     1      61.408  63.729  69.248  0.00  0.00    +0.000 C 
ATOM     14  C   UNL     1      61.514  63.678  70.159  0.00  0.00    +0.000 C 
ATOM     15  N   UNL     1      61.844  64.109  70.792  0.00  0.00    +0.000 N 
ATOM     16  C   UNL     1      62.248  64.859  70.742  0.00  0.00    +0.000 C 
ATOM     17  C   UNL     1      61.736  63.719  71.515  0.00  0.00    +0.000 A 
ATOM     18  C   UNL     1      61.948  63.896  72.293  0.00  0.00    +0.000 A 
ATOM     19  C   UNL     1      61.752  63.375  72.902  0.00  0.00    +0.000 A 
ATOM     20  C   UNL     1      61.345  62.678  72.735  0.00  0.00    +0.000 A 
ATOM     21  C   UNL     1      61.133  62.501  71.957  0.00  0.00    +0.000 A 
ATOM     22  C   UNL     1      61.329  63.021  71.348  0.00  0.00    +0.000 A 
ATOM     23  C   UNL     1      60.774  62.952  67.846  0.00  0.00    +0.000 C 
ATOM     24  C   UNL     1      60.590  62.858  66.950  0.00  0.00    +0.000 C 
ATOM     25  C   UNL     1      60.199  62.271  66.483  0.00  0.00    +0.000 C 
ATOM     26  C   UNL     1      61.186  63.588  68.270  0.00  0.00    +0.000 C 
ATOM     27  O   UNL     1      61.577  64.375  67.992  0.00  0.00    +0.000 OA
ENDROOT
TORSDOF 0
ENDMDL
MODEL 2
REMARK VINA RESULT:   -13.313      2.679      4.870
REMARK INTER + INTRA:         -13.313
REMARK INTER:                 -13.313
REMARK INTRA:                   0.000
REMARK UNBOUND:                 0.000
ROOT
REMARK  Name = prajmalium
REMARK                            x       y       z     vdW  Elec       q    Type
REMARK                         _______ _______ _______ _____ _____    ______ ____
ATOM      1  C   UNL     1      65.000  67.564  71.495  0.00  0.00    +0.000 C 
ATOM      2  C   UNL     1      64.377  67.055  71.679  0.00  0.00    +0.000 C 
ATOM      3  C   UNL     1      64.199  66.245  71.101  0.00  0.00    +0.000 C 
ATOM      4  N   UNL     1      63.945  65.595  70.756  0.00  0.00    +0.000 N 
ATOM      5  C   UNL     1      63.608  65.989  71.489  0.00  0.00    +0.000 C 
ATOM      6  C   UNL     1      62.901  65.819  72.083  0.00  0.00    +0.000 C 
ATOM      7  C   UNL     1      62.845  65.360  71.707  0.00  0.00    +0.000 C 
ATOM      8  C   UNL     1      63.190  66.287  72.217  0.00  0.00    +0.000 C 
ATOM      9  O   UNL     1      63.152  66.906  72.844  0.00  0.00    +0.000 OA
ATOM     10  C   UNL     1      63.913  66.566  71.710  0.00  0.00    +0.000 C 
ATOM     11  C   UNL     1      64.585  66.741  71.158  0.00  0.00    +0.000 C 
ATOM     12  C   UNL     1      64.463  66.014  70.600  0.00  0.00    +0.000 C 
ATOM     13  C   UNL     1      63.810  65.192  70.519  0.00  0.00    +0.000 C 
ATOM     14  C   UNL     1      63.085  64.845  70.964  0.00  0.00    +0.000 C 
ATOM     15  N   UNL     1      62.554  64.203  70.923  0.00  0.00    +0.000 N 
ATOM     16  C   UNL     1      62.550  63.581  70.338  0.00  0.00    +0.000 C 
ATOM     17  C   UNL     1      61.999  64.228  71.538  0.00  0.00    +0.000 A 
ATOM     18  C   UNL     1      61.367  63.741  71.751  0.00  0.00    +0.000 A 
ATOM     19  C   UNL     1      60.911  63.926  72.413  0.00  0.00    +0.000 A 
ATOM     20  C   UNL     1      61.085  64.596  72.862  0.00  0.00    +0.000 A 
ATOM     21  C   UNL     1      61.718  65.082  72.647  0.00  0.00    +0.000 A 
ATOM     22  C   UNL     1      62.174  64.898  71.986  0.00  0.00    +0.000 A 
ATOM     23  C   UNL     1      64.976  66.461  70.477  0.00  0.00    +0.000 C 
ATOM     24  C   UNL     1      65.698  66.927  70.148  0.00  0.00    +0.000 C 
ATOM     25  C   UNL     1      66.105  67.631  70.380  0.00  0.00    +0.000 C 
ATOM     26  C   UNL     1      64.599  65.734  70.189  0.00  0.00    +0.000 C 
ATOM     27  O   UNL     1      64.776  65.179  69.475  0.00  0.00    +0.000 OA
ENDROOT
TORSDOF 0
ENDMDL
MODEL 3
REMARK VINA RESULT:   -13.184      2.898      4.715
REMARK INTER + INTRA:         -13.184
REMARK INTER:                 -13.184
REMARK INTRA:                   0.000
REMARK UNBOUND:                 0.000
ROOT
REMARK  Name = prajmalium
REMARK                            x       y       z     vdW  Elec       q    Type
REMARK                         _______ _______ _______ _____ _____    ______ ____
ATOM      1  C   UNL     1      65.284  66.154  69.854  0.00  0.00    +0.000 C 
ATOM      2  C   UNL     1      64.655  65.729  70.179  0.00  0.00    +0.000 C 
ATOM      3  C   UNL     1      64.152  66.098  70.973  0.00  0.00    +0.000 C 
ATOM      4  N   UNL     1      63.680  66.252  71.573  0.00  0.00    +0.000 N 
ATOM      5  C   UNL     1      63.667  65.529  71.042  0.00  0.00    +0.000 C 
ATOM      6  C   UNL     1      63.153  64.745  70.979  0.00  0.00    +0.000 C 
ATOM      7  C   UNL     1      62.894  65.013  71.445  0.00  0.00    +0.000 C 
ATOM      8  C   UNL     1      63.557  64.772  70.584  0.00  0.00    +0.000 C 
ATOM      9  O   UNL     1      63.836  64.266  69.918  0.00  0.00    +0.000 OA
ATOM     10  C   UNL     1      64.135  65.494  70.536  0.00  0.00    +0.000 C 
ATOM     11  C   UNL     1      64.630  66.229  70.581  0.00  0.00    +0.000 C 
ATOM     12  C   UNL     1      64.200  66.609  71.308  0.00  0.00    +0.000 C 
ATOM     13  C   UNL     1      63.401  66.375  71.951  0.00  0.00    +0.000 C 
ATOM     14  C   UNL     1      62.789  65.700  72.070  0.00  0.00    +0.000 C 
ATOM     15  N   UNL     1      62.152  65.492  72.567  0.00  0.00    +0.000 N 
ATOM     16  C   UNL     1      61.846  65.945  73.222  0.00  0.00    +0.000 C 
ATOM     17  C   UNL     1      61.826  64.761  72.351  0.00  0.00    +0.000 A 
ATOM     18  C   UNL     1      61.203  64.308  72.649  0.00  0.00    +0.000 A 
ATOM     19  C   UNL     1      61.015  63.586  72.298  0.00  0.00    +0.000 A 
ATOM     20  C   UNL     1      61.448  63.315  71.650  0.00  0.00    +0.000 A 
ATOM     21  C   UNL     1      62.071  63.769  71.353  0.00  0.00    +0.000 A 
ATOM     22  C   UNL     1      62.259  64.491  71.704  0.00  0.00    +0.000 A 
ATOM     23  C   UNL     1      64.731  66.936  71.010  0.00  0.00    +0.000 C 
ATOM     24  C   UNL     1      65.399  67.520  70.765  0.00  0.00    +0.000 C 
ATOM     25  C   UNL     1      65.991  67.524  70.161  0.00  0.00    +0.000 C 
ATOM     26  C   UNL     1      64.147  66.990  71.650  0.00  0.00    +0.000 C 
ATOM     27  O   UNL     1      63.983  67.626  72.296  0.00  0.00    +0.000 OA
ENDROOT
TORSDOF 0
ENDMDL
MODEL 4
REMARK VINA RESULT:   -13.123      2.686      4.548
REMARK INTER + INTRA:         -13.123
REMARK INTER:                 -13.123
REMARK INTRA:                   0.000
REMARK UNBOUND:                 0.000
ROOT
REMARK  Name = prajmalium
REMARK                            x       y       z     vdW  Elec       q    Type
REMARK                         _______ _______ _______ _____ _____    ______ ____
ATOM      1  C   UNL     1      61.204  64.780  72.846  0.00  0.00    +0.000 C 
ATOM      2  C   UNL     1      61.859  65.190  72.555  0.00  0.00    +0.000 C 
ATOM      3  C   UNL     1      62.329  64.865  71.722  0.00  0.00    +0.000 C 
ATOM      4  N   UNL     1      62.785  64.737  71.104  0.00  0.00    +0.000 N 
ATOM      5  C   UNL     1      62.853  65.403  71.702  0.00  0.00    +0.000 C 
ATOM      6  C   UNL     1      63.423  66.138  71.833  0.00  0.00    +0.000 C 
ATOM      7  C   UNL     1      63.658  65.899  71.339  0.00  0.00    +0.000 C 
ATOM      8  C   UNL     1      63.020  66.102  72.229  0.00  0.00    +0.000 C 
ATOM      9  O   UNL     1      62.783  66.558  72.945  0.00  0.00    +0.000 OA
ATOM     10  C   UNL     1      62.393  65.421  72.215  0.00  0.00    +0.000 C 
ATOM     11  C   UNL     1      61.846  64.731  72.106  0.00  0.00    +0.000 C 
ATOM     12  C   UNL     1      62.242  64.394  71.340  0.00  0.00    +0.000 C 
ATOM     13  C   UNL     1      63.052  64.632  70.711  0.00  0.00    +0.000 C 
ATOM     14  C   UNL     1      63.709  65.271  70.650  0.00  0.00    +0.000 C 
ATOM     15  N   UNL     1      64.356  65.481  70.167  0.00  0.00    +0.000 N 
ATOM     16  C   UNL     1      64.624  65.073  69.467  0.00  0.00    +0.000 C 
ATOM     17  C   UNL     1      64.735  66.162  70.447  0.00  0.00    +0.000 A 
ATOM     18  C   UNL     1      65.387  66.597  70.186  0.00  0.00    +0.000 A 
ATOM     19  C   UNL     1      65.629  67.266  70.602  0.00  0.00    +0.000 A 
ATOM     20  C   UNL     1      65.220  67.502  71.279  0.00  0.00    +0.000 A 
ATOM     21  C   UNL     1      64.569  67.067  71.540  0.00  0.00    +0.000 A 
ATOM     22  C   UNL     1      64.327  66.398  71.124  0.00  0.00    +0.000 A 
ATOM     23  C   UNL     1      61.691  64.077  71.612  0.00  0.00    +0.000 C 
ATOM     24  C   UNL     1      60.985  63.521  71.809  0.00  0.00    +0.000 C 
ATOM     25  C   UNL     1      60.399  63.500  72.418  0.00  0.00    +0.000 C 
ATOM     26  C   UNL     1      62.266  64.045  70.962  0.00  0.00    +0.000 C 
ATOM     27  O   UNL     1      62.378  63.465  70.255  0.00  0.00    +0.000 OA
ENDROOT
TORSDOF 0
ENDMDL
MODEL 5
REMARK VINA RESULT:   -12.550      2.384      3.840
REMARK INTER + INTRA:         -12.550
REMARK INTER:                 -12.550
REMARK INTRA:                   0.000
REMARK UNBOUND:                 0.000
ROOT
REMARK  Name = prajmalium
REMARK                            x       y       z     vdW  Elec       q    Type
REMARK                         _______ _______ _______ _____ _____    ______ ____
ATOM      1  C   UNL     1      61.755  62.779  71.018  0.00  0.00    +0.000 C 
ATOM      2  C   UNL     1      61.909  63.539  71.302  0.00  0.00    +0.000 C 
ATOM      3  C   UNL     1      61.168  64.078  71.727  0.00  0.00    +0.000 C 
ATOM      4  N   UNL     1      60.707  64.602  72.072  0.00  0.00    +0.000 N 
ATOM      5  C   UNL     1      61.579  64.688  71.878  0.00  0.00    +0.000 C 
ATOM      6  C   UNL     1      62.234  65.352  71.989  0.00  0.00    +0.000 C 
ATOM      7  C   UNL     1      61.759  65.621  72.229  0.00  0.00    +0.000 C 
ATOM      8  C   UNL     1      62.436  64.887  71.737  0.00  0.00    +0.000 C 
ATOM      9  O   UNL     1      63.212  64.618  71.418  0.00  0.00    +0.000 OA
ATOM     10  C   UNL     1      61.892  64.157  71.569  0.00  0.00    +0.000 C 
ATOM     11  C   UNL     1      61.286  63.519  71.458  0.00  0.00    +0.000 C 
ATOM     12  C   UNL     1      60.575  63.973  71.839  0.00  0.00    +0.000 C 
ATOM     13  C   UNL     1      60.396  64.909  72.285  0.00  0.00    +0.000 C 
ATOM     14  C   UNL     1      60.862  65.674  72.488  0.00  0.00    +0.000 C 
ATOM     15  N   UNL     1      60.746  66.422  72.837  0.00  0.00    +0.000 N 
ATOM     16  C   UNL     1      60.017  66.728  73.160  0.00  0.00    +0.000 C 
ATOM     17  C   UNL     1      61.445  66.867  72.842  0.00  0.00    +0.000 A 
ATOM     18  C   UNL     1      61.635  67.623  73.114  0.00  0.00    +0.000 A 
ATOM     19  C   UNL     1      62.405  67.908  73.033  0.00  0.00    +0.000 A 
ATOM     20  C   UNL     1      62.985  67.440  72.680  0.00  0.00    +0.000 A 
ATOM     21  C   UNL     1      62.794  66.684  72.408  0.00  0.00    +0.000 A 
ATOM     22  C   UNL     1      62.025  66.398  72.489  0.00  0.00    +0.000 A 
ATOM     23  C   UNL     1      60.484  63.334  71.590  0.00  0.00    +0.000 C 
ATOM     24  C   UNL     1      60.161  62.514  71.326  0.00  0.00    +0.000 C 
ATOM     25  C   UNL     1      60.499  61.837  70.948  0.00  0.00    +0.000 C 
ATOM     26  C   UNL     1      60.080  63.997  71.979  0.00  0.00    +0.000 C 
ATOM     27  O   UNL     1      59.211  64.121  72.262  0.00  0.00    +0.000 OA
ENDROOT
TORSDOF 0
ENDMDL
MODEL 6
REMARK VINA RESULT:   -12.052      2.404      4.067
REMARK INTER + INTRA:         -12.052
REMARK INTER:                 -12.052
REMARK INTRA:                   0.000
REMARK UNBOUND:                 0.000
ROOT
REMARK  Name = prajmalium
REMARK                            x       y       z     vdW  Elec       q    Type
REMARK                         _______ _______ _______ _____ _____    ______ ____
ATOM      1  C   UNL     1      59.409  67.034  70.394  0.00  0.00    +0.000 C 
ATOM      2  C   UNL     1      59.619  66.296  70.088  0.00  0.00    +0.000 C 
ATOM      3  C   UNL     1      59.679  65.494  70.699  0.00  0.00    +0.000 C 
ATOM      4  N   UNL     1      59.765  64.800  71.040  0.00  0.00    +0.000 N 
ATOM      5  C   UNL     1      59.878  64.997  70.172  0.00  0.00    +0.000 C 
ATOM      6  C   UNL     1      60.116  64.524  69.397  0.00  0.00    +0.000 C 
ATOM      7  C   UNL     1      60.135  64.089  69.804  0.00  0.00    +0.000 C 
ATOM      8  C   UNL     1      60.019  65.073  69.295  0.00  0.00    +0.000 C 
ATOM      9  O   UNL     1      60.032  65.606  68.594  0.00  0.00    +0.000 OA
ATOM     10  C   UNL     1      59.775  65.650  69.976  0.00  0.00    +0.000 C 
ATOM     11  C   UNL     1      59.549  66.112  70.699  0.00  0.00    +0.000 C 
ATOM     12  C   UNL     1      59.590  65.408  71.299  0.00  0.00    +0.000 C 
ATOM     13  C   UNL     1      59.811  64.379  71.280  0.00  0.00    +0.000 C 
ATOM     14  C   UNL     1      60.055  63.740  70.667  0.00  0.00    +0.000 C 
ATOM     15  N   UNL     1      60.234  62.926  70.626  0.00  0.00    +0.000 N 
ATOM     16  C   UNL     1      60.235  62.370  71.274  0.00  0.00    +0.000 C 
ATOM     17  C   UNL     1      60.420  62.696  69.853  0.00  0.00    +0.000 A 
ATOM     18  C   UNL     1      60.633  61.974  69.512  0.00  0.00    +0.000 A 
ATOM     19  C   UNL     1      60.787  61.931  68.702  0.00  0.00    +0.000 A 
ATOM     20  C   UNL     1      60.728  62.608  68.234  0.00  0.00    +0.000 A 
ATOM     21  C   UNL     1      60.515  63.328  68.575  0.00  0.00    +0.000 A 
ATOM     22  C   UNL     1      60.362  63.372  69.384  0.00  0.00    +0.000 A 
ATOM     23  C   UNL     1      59.418  66.041  71.519  0.00  0.00    +0.000 C 
ATOM     24  C   UNL     1      59.174  66.784  72.003  0.00  0.00    +0.000 C 
ATOM     25  C   UNL     1      59.037  67.597  71.813  0.00  0.00    +0.000 C 
ATOM     26  C   UNL     1      59.544  65.221  71.776  0.00  0.00    +0.000 C 
ATOM     27  O   UNL     1      59.485  64.807  72.598  0.00  0.00    +0.000 OA
ENDROOT
TORSDOF 0
ENDMDL
MODEL 7
REMARK VINA RESULT:   -11.950      0.755      2.082
REMARK INTER + INTRA:         -11.950
REMARK INTER:                 -11.950
REMARK INTRA:                   0.000
REMARK UNBOUND:                 0.000
ROOT
REMARK  Name = prajmalium
REMARK                            x       y       z     vdW  Elec       q    Type
REMARK                         _______ _______ _______ _____ _____    ______ ____
ATOM      1  C   UNL     1      60.946  63.384  67.634  0.00  0.00    +0.000 C 
ATOM      2  C   UNL     1      61.184  63.728  68.346  0.00  0.00    +0.000 C 
ATOM      3  C   UNL     1      60.999  63.258  69.220  0.00  0.00    +0.000 C 
ATOM      4  N   UNL     1      60.927  63.018  69.958  0.00  0.00    +0.000 N 
ATOM      5  C   UNL     1      61.310  63.776  69.666  0.00  0.00    +0.000 C 
ATOM      6  C   UNL     1      61.736  64.514  70.061  0.00  0.00    +0.000 C 
ATOM      7  C   UNL     1      61.599  64.191  70.544  0.00  0.00    +0.000 C 
ATOM      8  C   UNL     1      61.713  64.553  69.497  0.00  0.00    +0.000 C 
ATOM      9  O   UNL     1      61.975  65.129  68.884  0.00  0.00    +0.000 OA
ATOM     10  C   UNL     1      61.319  63.889  68.986  0.00  0.00    +0.000 C 
ATOM     11  C   UNL     1      60.920  63.199  68.597  0.00  0.00    +0.000 C 
ATOM     12  C   UNL     1      60.728  62.729  69.371  0.00  0.00    +0.000 C 
ATOM     13  C   UNL     1      60.868  62.844  70.408  0.00  0.00    +0.000 C 
ATOM     14  C   UNL     1      61.238  63.452  70.988  0.00  0.00    +0.000 C 
ATOM     15  N   UNL     1      61.361  63.566  71.805  0.00  0.00    +0.000 N 
ATOM     16  C   UNL     1      61.128  63.040  72.435  0.00  0.00    +0.000 C 
ATOM     17  C   UNL     1      61.754  64.280  71.956  0.00  0.00    +0.000 A 
ATOM     18  C   UNL     1      62.007  64.653  72.648  0.00  0.00    +0.000 A 
ATOM     19  C   UNL     1      62.393  65.381  72.605  0.00  0.00    +0.000 A 
ATOM     20  C   UNL     1      62.527  65.736  71.873  0.00  0.00    +0.000 A 
ATOM     21  C   UNL     1      62.274  65.362  71.182  0.00  0.00    +0.000 A 
ATOM     22  C   UNL     1      61.889  64.635  71.223  0.00  0.00    +0.000 A 
ATOM     23  C   UNL     1      60.544  62.472  68.756  0.00  0.00    +0.000 C 
ATOM     24  C   UNL     1      60.221  61.969  68.057  0.00  0.00    +0.000 C 
ATOM     25  C   UNL     1      60.207  62.062  67.216  0.00  0.00    +0.000 C 
ATOM     26  C   UNL     1      60.527  62.320  69.611  0.00  0.00    +0.000 C 
ATOM     27  O   UNL     1      60.194  61.625  70.116  0.00  0.00    +0.000 OA
ENDROOT
TORSDOF 0
ENDMDL
MODEL 8
REMARK VINA RESULT:   -11.841      2.084      3.752
REMARK INTER + INTRA:         -11.841
REMARK INTER:                 -11.841
REMARK INTRA:                   0.000
REMARK UNBOUND:                 0.000
ROOT
REMARK  Name = prajmalium
REMARK                            x       y       z     vdW  Elec       q    Type
REMARK                         _______ _______ _______ _____ _____    ______ ____
ATOM      1  C   UNL     1      61.916  63.397  69.341  0.00  0.00    +0.000 C 
ATOM      2  C   UNL     1      62.449  63.959  69.627  0.00  0.00    +0.000 C 
ATOM      3  C   UNL     1      62.249  64.455  70.483  0.00  0.00    +0.000 C 
ATOM      4  N   UNL     1      62.231  64.908  71.117  0.00  0.00    +0.000 N 
ATOM      5  C   UNL     1      62.873  64.873  70.491  0.00  0.00    +0.000 C 
ATOM      6  C   UNL     1      63.693  65.304  70.339  0.00  0.00    +0.000 C 
ATOM      7  C   UNL     1      63.522  65.564  70.848  0.00  0.00    +0.000 C 
ATOM      8  C   UNL     1      63.569  64.926  69.936  0.00  0.00    +0.000 C 
ATOM      9  O   UNL     1      63.945  64.632  69.196  0.00  0.00    +0.000 OA
ATOM     10  C   UNL     1      62.786  64.432  69.968  0.00  0.00    +0.000 C 
ATOM     11  C   UNL     1      62.014  64.015  70.096  0.00  0.00    +0.000 C 
ATOM     12  C   UNL     1      61.786  64.443  70.884  0.00  0.00    +0.000 C 
ATOM     13  C   UNL     1      62.192  65.178  71.519  0.00  0.00    +0.000 C 
ATOM     14  C   UNL     1      62.941  65.708  71.566  0.00  0.00    +0.000 C 
ATOM     15  N   UNL     1      63.284  66.292  72.052  0.00  0.00    +0.000 N 
ATOM     16  C   UNL     1      62.961  66.609  72.776  0.00  0.00    +0.000 C 
ATOM     17  C   UNL     1      64.011  66.550  71.750  0.00  0.00    +0.000 A 
ATOM     18  C   UNL     1      64.567  67.105  72.005  0.00  0.00    +0.000 A 
ATOM     19  C   UNL     1      65.252  67.234  71.564  0.00  0.00    +0.000 A 
ATOM     20  C   UNL     1      65.382  66.810  70.868  0.00  0.00    +0.000 A 
ATOM     21  C   UNL     1      64.826  66.255  70.614  0.00  0.00    +0.000 A 
ATOM     22  C   UNL     1      64.141  66.126  71.054  0.00  0.00    +0.000 A 
ATOM     23  C   UNL     1      61.364  63.966  70.615  0.00  0.00    +0.000 C 
ATOM     24  C   UNL     1      60.681  63.378  70.429  0.00  0.00    +0.000 C 
ATOM     25  C   UNL     1      60.530  62.823  69.809  0.00  0.00    +0.000 C 
ATOM     26  C   UNL     1      61.462  64.518  71.278  0.00  0.00    +0.000 C 
ATOM     27  O   UNL     1      60.941  64.713  72.013  0.00  0.00    +0.000 OA
ENDROOT
TORSDOF 0
ENDMDL
MODEL 9
REMARK VINA RESULT:   -11.618      2.746      3.778
REMARK INTER + INTRA:         -11.618
REMARK INTER:                 -11.618
REMARK INTRA:                   0.000
REMARK UNBOUND:                 0.000
ROOT
REMARK  Name = prajmalium
REMARK                            x       y       z     vdW  Elec       q    Type
REMARK                         _______ _______ _______ _____ _____    ______ ____
ATOM      1  C   UNL     1      63.195  63.999  70.263  0.00  0.00    +0.000 C 
ATOM      2  C   UNL     1      62.480  64.166  70.639  0.00  0.00    +0.000 C 
ATOM      3  C   UNL     1      62.400  64.977  71.237  0.00  0.00    +0.000 C 
ATOM      4  N   UNL     1      62.192  65.554  71.717  0.00  0.00    +0.000 N 
ATOM      5  C   UNL     1      61.681  64.876  71.426  0.00  0.00    +0.000 C 
ATOM      6  C   UNL     1      60.793  64.598  71.552  0.00  0.00    +0.000 C 
ATOM      7  C   UNL     1      60.806  65.088  71.891  0.00  0.00    +0.000 C 
ATOM      8  C   UNL     1      61.081  64.254  71.206  0.00  0.00    +0.000 C 
ATOM      9  O   UNL     1      60.916  63.519  70.750  0.00  0.00    +0.000 OA
ATOM     10  C   UNL     1      61.969  64.417  71.000  0.00  0.00    +0.000 C 
ATOM     11  C   UNL     1      62.810  64.666  70.870  0.00  0.00    +0.000 C 
ATOM     12  C   UNL     1      62.788  65.420  71.407  0.00  0.00    +0.000 C 
ATOM     13  C   UNL     1      62.092  65.925  72.014  0.00  0.00    +0.000 C 
ATOM     14  C   UNL     1      61.214  65.839  72.270  0.00  0.00    +0.000 C 
ATOM     15  N   UNL     1      60.644  66.221  72.745  0.00  0.00    +0.000 N 
ATOM     16  C   UNL     1      60.755  66.931  73.203  0.00  0.00    +0.000 C 
ATOM     17  C   UNL     1      59.918  65.821  72.727  0.00  0.00    +0.000 A 
ATOM     18  C   UNL     1      59.187  65.957  73.087  0.00  0.00    +0.000 A 
ATOM     19  C   UNL     1      58.559  65.440  72.951  0.00  0.00    +0.000 A 
ATOM     20  C   UNL     1      58.660  64.787  72.456  0.00  0.00    +0.000 A 
ATOM     21  C   UNL     1      59.391  64.652  72.097  0.00  0.00    +0.000 A 
ATOM     22  C   UNL     1      60.019  65.169  72.233  0.00  0.00    +0.000 A 
ATOM     23  C   UNL     1      63.370  65.248  71.076  0.00  0.00    +0.000 C 
ATOM     24  C   UNL     1      64.222  65.196  70.732  0.00  0.00    +0.000 C 
ATOM     25  C   UNL     1      64.620  64.661  70.212  0.00  0.00    +0.000 C 
ATOM     26  C   UNL     1      63.017  65.832  71.614  0.00  0.00    +0.000 C 
ATOM     27  O   UNL     1      63.351  66.587  72.023  0.00  0.00    +0.000 OA
ENDROOT
TORSDOF 0
ENDMDL
