MODEL 1
REMARK VINA RESULT:   -17.636      0.000      0.000
REMARK INTER + INTRA:         -17.636
REMARK INTER:                 -17.636
REMARK INTRA:                   0.000
REMARK UNBOUND:                 0.000
ROOT
REMARK  Name = pralmorelin
REMARK                            x       y       z     vdW  Elec       q    Type
REMARK                         _______ _______ _______ _____ _____    ______ ____
ATOM      1  C   UNL     1      62.325  69.503  56.087  0.00  0.00    +0.000 C 
ATOM      2  C   UNL     1      62.506  68.710  56.222  0.00  0.00    +0.000 C 
ATOM      3  N   UNL     1      62.751  68.464  56.970  0.00  0.00    +0.000 NA
ATOM      4  C   UNL     1      62.440  68.162  55.609  0.00  0.00    +0.000 C 
ATOM      5  O   UNL     1      62.620  67.369  55.743  0.00  0.00    +0.000 OA
ATOM      6  N   UNL     1      62.194  68.408  54.861  0.00  0.00    +0.000 NA
ATOM      7  C   UNL     1      62.128  67.860  54.247  0.00  0.00    +0.000 C 
ATOM      8  C   UNL     1      61.882  68.106  53.499  0.00  0.00    +0.000 C 
ATOM      9  C   UNL     1      61.816  67.558  52.885  0.00  0.00    +0.000 A 
ATOM     10  C   UNL     1      61.996  66.764  53.020  0.00  0.00    +0.000 A 
ATOM     11  C   UNL     1      61.931  66.217  52.407  0.00  0.00    +0.000 A 
ATOM     12  C   UNL     1      61.685  66.462  51.659  0.00  0.00    +0.000 A 
ATOM     13  C   UNL     1      61.619  65.914  51.045  0.00  0.00    +0.000 A 
ATOM     14  C   UNL     1      61.373  66.160  50.298  0.00  0.00    +0.000 A 
ATOM     15  C   UNL     1      61.193  66.954  50.163  0.00  0.00    +0.000 A 
ATOM     16  C   UNL     1      61.258  67.501  50.776  0.00  0.00    +0.000 A 
ATOM     17  C   UNL     1      61.504  67.256  51.524  0.00  0.00    +0.000 A 
ATOM     18  C   UNL     1      61.570  67.804  52.137  0.00  0.00    +0.000 A 
ATOM     19  C   UNL     1      62.308  67.066  54.382  0.00  0.00    +0.000 C 
ATOM     20  O   UNL     1      62.554  66.821  55.130  0.00  0.00    +0.000 OA
ATOM     21  N   UNL     1      62.243  66.518  53.769  0.00  0.00    +0.000 NA
ATOM     22  C   UNL     1      62.423  65.725  53.903  0.00  0.00    +0.000 C 
ATOM     23  C   UNL     1      62.669  65.480  54.652  0.00  0.00    +0.000 C 
ATOM     24  C   UNL     1      62.357  65.177  53.290  0.00  0.00    +0.000 C 
ATOM     25  O   UNL     1      62.111  65.423  52.542  0.00  0.00    +0.000 OA
ATOM     26  N   UNL     1      62.537  64.383  53.425  0.00  0.00    +0.000 NA
ATOM     27  C   UNL     1      62.471  63.836  52.811  0.00  0.00    +0.000 C 
ATOM     28  C   UNL     1      62.226  64.081  52.064  0.00  0.00    +0.000 C 
ATOM     29  C   UNL     1      62.160  63.533  51.450  0.00  0.00    +0.000 C 
ATOM     30  C   UNL     1      62.320  62.726  51.502  0.00  0.00    +0.000 C 
ATOM     31  N   UNL     1      62.182  62.390  50.761  0.00  0.00    +0.000 NA
ATOM     32  C   UNL     1      61.935  62.990  50.251  0.00  0.00    +0.000 C 
ATOM     33  C   UNL     1      61.922  63.697  50.677  0.00  0.00    +0.000 C 
ATOM     34  C   UNL     1      61.695  64.398  50.306  0.00  0.00    +0.000 C 
ATOM     35  C   UNL     1      61.481  64.392  49.509  0.00  0.00    +0.000 C 
ATOM     36  C   UNL     1      61.495  63.685  49.084  0.00  0.00    +0.000 C 
ATOM     37  C   UNL     1      61.722  62.985  49.454  0.00  0.00    +0.000 C 
ATOM     38  C   UNL     1      62.652  63.042  52.946  0.00  0.00    +0.000 C 
ATOM     39  O   UNL     1      62.898  62.796  53.695  0.00  0.00    +0.000 OA
ATOM     40  N   UNL     1      62.586  62.494  52.333  0.00  0.00    +0.000 NA
ATOM     41  C   UNL     1      62.766  61.700  52.468  0.00  0.00    +0.000 C 
ATOM     42  C   UNL     1      63.013  61.454  53.216  0.00  0.00    +0.000 C 
ATOM     43  C   UNL     1      63.193  60.661  53.351  0.00  0.00    +0.000 A 
ATOM     44  C   UNL     1      63.439  60.415  54.099  0.00  0.00    +0.000 A 
ATOM     45  C   UNL     1      63.619  59.621  54.234  0.00  0.00    +0.000 A 
ATOM     46  C   UNL     1      63.553  59.073  53.621  0.00  0.00    +0.000 A 
ATOM     47  C   UNL     1      63.307  59.319  52.872  0.00  0.00    +0.000 A 
ATOM     48  C   UNL     1      63.127  60.113  52.737  0.00  0.00    +0.000 A 
ATOM     49  C   UNL     1      62.701  61.152  51.854  0.00  0.00    +0.000 C 
ATOM     50  O   UNL     1      62.454  61.398  51.106  0.00  0.00    +0.000 OA
ATOM     51  N   UNL     1      62.881  60.359  51.990  0.00  0.00    +0.000 NA
ATOM     52  C   UNL     1      62.815  59.811  51.376  0.00  0.00    +0.000 C 
ATOM     53  C   UNL     1      62.996  59.017  51.511  0.00  0.00    +0.000 C 
ATOM     54  C   UNL     1      62.930  58.469  50.898  0.00  0.00    +0.000 C 
ATOM     55  C   UNL     1      63.110  57.675  51.033  0.00  0.00    +0.000 C 
ATOM     56  C   UNL     1      63.044  57.128  50.420  0.00  0.00    +0.000 C 
ATOM     57  N   UNL     1      62.798  57.373  49.671  0.00  0.00    +0.000 NA
ATOM     58  C   UNL     1      62.569  60.056  50.628  0.00  0.00    +0.000 C 
ATOM     59  N   UNL     1      62.503  59.509  50.015  0.00  0.00    +0.000 NA
ATOM     60  O   UNL     1      62.389  60.850  50.493  0.00  0.00    +0.000 OA
ENDROOT
TORSDOF 0
ENDMDL
MODEL 2
REMARK VINA RESULT:   -17.046      1.905      3.688
REMARK INTER + INTRA:         -17.046
REMARK INTER:                 -17.046
REMARK INTRA:                   0.000
REMARK UNBOUND:                 0.000
ROOT
REMARK  Name = pralmorelin
REMARK                            x       y       z     vdW  Elec       q    Type
REMARK                         _______ _______ _______ _____ _____    ______ ____
ATOM      1  C   UNL     1      61.155  71.173  49.597  0.00  0.00    +0.000 C 
ATOM      2  C   UNL     1      61.256  70.438  49.235  0.00  0.00    +0.000 C 
ATOM      3  N   UNL     1      61.252  70.380  48.413  0.00  0.00    +0.000 NA
ATOM      4  C   UNL     1      61.362  69.763  49.696  0.00  0.00    +0.000 C 
ATOM      5  O   UNL     1      61.463  69.029  49.335  0.00  0.00    +0.000 OA
ATOM      6  N   UNL     1      61.366  69.821  50.520  0.00  0.00    +0.000 NA
ATOM      7  C   UNL     1      61.471  69.145  50.981  0.00  0.00    +0.000 C 
ATOM      8  C   UNL     1      61.476  69.204  51.804  0.00  0.00    +0.000 C 
ATOM      9  C   UNL     1      61.581  68.528  52.265  0.00  0.00    +0.000 A 
ATOM     10  C   UNL     1      61.683  67.793  51.903  0.00  0.00    +0.000 A 
ATOM     11  C   UNL     1      61.788  67.118  52.364  0.00  0.00    +0.000 A 
ATOM     12  C   UNL     1      61.792  67.176  53.187  0.00  0.00    +0.000 A 
ATOM     13  C   UNL     1      61.898  66.500  53.648  0.00  0.00    +0.000 A 
ATOM     14  C   UNL     1      61.902  66.559  54.471  0.00  0.00    +0.000 A 
ATOM     15  C   UNL     1      61.801  67.293  54.833  0.00  0.00    +0.000 A 
ATOM     16  C   UNL     1      61.695  67.968  54.372  0.00  0.00    +0.000 A 
ATOM     17  C   UNL     1      61.691  67.910  53.549  0.00  0.00    +0.000 A 
ATOM     18  C   UNL     1      61.585  68.587  53.088  0.00  0.00    +0.000 A 
ATOM     19  C   UNL     1      61.573  68.410  50.619  0.00  0.00    +0.000 C 
ATOM     20  O   UNL     1      61.569  68.352  49.797  0.00  0.00    +0.000 OA
ATOM     21  N   UNL     1      61.678  67.735  51.080  0.00  0.00    +0.000 NA
ATOM     22  C   UNL     1      61.780  67.001  50.719  0.00  0.00    +0.000 C 
ATOM     23  C   UNL     1      61.776  66.942  49.896  0.00  0.00    +0.000 C 
ATOM     24  C   UNL     1      61.885  66.324  51.180  0.00  0.00    +0.000 C 
ATOM     25  O   UNL     1      61.890  66.383  52.002  0.00  0.00    +0.000 OA
ATOM     26  N   UNL     1      61.987  65.590  50.818  0.00  0.00    +0.000 NA
ATOM     27  C   UNL     1      62.092  64.914  51.279  0.00  0.00    +0.000 C 
ATOM     28  C   UNL     1      62.097  64.972  52.101  0.00  0.00    +0.000 C 
ATOM     29  C   UNL     1      62.202  64.296  52.562  0.00  0.00    +0.000 C 
ATOM     30  C   UNL     1      62.310  63.529  52.280  0.00  0.00    +0.000 C 
ATOM     31  N   UNL     1      62.393  63.027  52.930  0.00  0.00    +0.000 NA
ATOM     32  C   UNL     1      62.337  63.485  53.614  0.00  0.00    +0.000 C 
ATOM     33  C   UNL     1      62.219  64.270  53.387  0.00  0.00    +0.000 C 
ATOM     34  C   UNL     1      62.142  64.859  53.960  0.00  0.00    +0.000 C 
ATOM     35  C   UNL     1      62.183  64.662  54.761  0.00  0.00    +0.000 C 
ATOM     36  C   UNL     1      62.301  63.878  54.987  0.00  0.00    +0.000 C 
ATOM     37  C   UNL     1      62.378  63.289  54.415  0.00  0.00    +0.000 C 
ATOM     38  C   UNL     1      62.194  64.180  50.917  0.00  0.00    +0.000 C 
ATOM     39  O   UNL     1      62.190  64.121  50.094  0.00  0.00    +0.000 OA
ATOM     40  N   UNL     1      62.299  63.504  51.378  0.00  0.00    +0.000 NA
ATOM     41  C   UNL     1      62.401  62.769  51.016  0.00  0.00    +0.000 C 
ATOM     42  C   UNL     1      62.397  62.711  50.193  0.00  0.00    +0.000 C 
ATOM     43  C   UNL     1      62.498  61.977  49.832  0.00  0.00    +0.000 A 
ATOM     44  C   UNL     1      62.494  61.917  49.009  0.00  0.00    +0.000 A 
ATOM     45  C   UNL     1      62.595  61.183  48.647  0.00  0.00    +0.000 A 
ATOM     46  C   UNL     1      62.701  60.508  49.108  0.00  0.00    +0.000 A 
ATOM     47  C   UNL     1      62.705  60.566  49.931  0.00  0.00    +0.000 A 
ATOM     48  C   UNL     1      62.604  61.300  50.293  0.00  0.00    +0.000 A 
ATOM     49  C   UNL     1      62.507  62.093  51.477  0.00  0.00    +0.000 C 
ATOM     50  O   UNL     1      62.511  62.152  52.300  0.00  0.00    +0.000 OA
ATOM     51  N   UNL     1      62.608  61.359  51.115  0.00  0.00    +0.000 NA
ATOM     52  C   UNL     1      62.713  60.683  51.576  0.00  0.00    +0.000 C 
ATOM     53  C   UNL     1      62.815  59.948  51.214  0.00  0.00    +0.000 C 
ATOM     54  C   UNL     1      62.921  59.272  51.675  0.00  0.00    +0.000 C 
ATOM     55  C   UNL     1      63.022  58.538  51.313  0.00  0.00    +0.000 C 
ATOM     56  C   UNL     1      63.127  57.862  51.774  0.00  0.00    +0.000 C 
ATOM     57  N   UNL     1      63.132  57.921  52.598  0.00  0.00    +0.000 NA
ATOM     58  C   UNL     1      62.718  60.741  52.399  0.00  0.00    +0.000 C 
ATOM     59  N   UNL     1      62.823  60.066  52.860  0.00  0.00    +0.000 NA
ATOM     60  O   UNL     1      62.616  61.476  52.761  0.00  0.00    +0.000 OA
ENDROOT
TORSDOF 0
ENDMDL
MODEL 3
REMARK VINA RESULT:   -16.947      1.599      7.134
REMARK INTER + INTRA:         -16.947
REMARK INTER:                 -16.947
REMARK INTRA:                   0.000
REMARK UNBOUND:                 0.000
ROOT
REMARK  Name = pralmorelin
REMARK                            x       y       z     vdW  Elec       q    Type
REMARK                         _______ _______ _______ _____ _____    ______ ____
ATOM      1  C   UNL     1      63.708  58.130  53.318  0.00  0.00    +0.000 C 
ATOM      2  C   UNL     1      63.806  58.808  53.777  0.00  0.00    +0.000 C 
ATOM      3  N   UNL     1      64.257  58.778  54.466  0.00  0.00    +0.000 NA
ATOM      4  C   UNL     1      63.452  59.517  53.547  0.00  0.00    +0.000 C 
ATOM      5  O   UNL     1      63.549  60.195  54.006  0.00  0.00    +0.000 OA
ATOM      6  N   UNL     1      63.000  59.547  52.857  0.00  0.00    +0.000 NA
ATOM      7  C   UNL     1      62.646  60.256  52.627  0.00  0.00    +0.000 C 
ATOM      8  C   UNL     1      62.194  60.286  51.937  0.00  0.00    +0.000 C 
ATOM      9  C   UNL     1      61.840  60.995  51.706  0.00  0.00    +0.000 A 
ATOM     10  C   UNL     1      61.938  61.674  52.166  0.00  0.00    +0.000 A 
ATOM     11  C   UNL     1      61.584  62.382  51.935  0.00  0.00    +0.000 A 
ATOM     12  C   UNL     1      61.132  62.413  51.246  0.00  0.00    +0.000 A 
ATOM     13  C   UNL     1      60.778  63.122  51.015  0.00  0.00    +0.000 A 
ATOM     14  C   UNL     1      60.327  63.152  50.326  0.00  0.00    +0.000 A 
ATOM     15  C   UNL     1      60.229  62.473  49.866  0.00  0.00    +0.000 A 
ATOM     16  C   UNL     1      60.583  61.765  50.097  0.00  0.00    +0.000 A 
ATOM     17  C   UNL     1      61.034  61.734  50.786  0.00  0.00    +0.000 A 
ATOM     18  C   UNL     1      61.388  61.025  51.016  0.00  0.00    +0.000 A 
ATOM     19  C   UNL     1      62.743  60.935  53.086  0.00  0.00    +0.000 C 
ATOM     20  O   UNL     1      63.195  60.904  53.775  0.00  0.00    +0.000 OA
ATOM     21  N   UNL     1      62.389  61.643  52.856  0.00  0.00    +0.000 NA
ATOM     22  C   UNL     1      62.487  62.321  53.315  0.00  0.00    +0.000 C 
ATOM     23  C   UNL     1      62.938  62.290  54.005  0.00  0.00    +0.000 C 
ATOM     24  C   UNL     1      62.132  63.030  53.084  0.00  0.00    +0.000 C 
ATOM     25  O   UNL     1      61.681  63.060  52.395  0.00  0.00    +0.000 OA
ATOM     26  N   UNL     1      62.230  63.708  53.544  0.00  0.00    +0.000 NA
ATOM     27  C   UNL     1      61.876  64.416  53.314  0.00  0.00    +0.000 C 
ATOM     28  C   UNL     1      61.425  64.447  52.624  0.00  0.00    +0.000 C 
ATOM     29  C   UNL     1      61.071  65.156  52.394  0.00  0.00    +0.000 C 
ATOM     30  C   UNL     1      61.119  65.875  52.795  0.00  0.00    +0.000 C 
ATOM     31  N   UNL     1      60.684  66.434  52.371  0.00  0.00    +0.000 NA
ATOM     32  C   UNL     1      60.367  66.060  51.707  0.00  0.00    +0.000 C 
ATOM     33  C   UNL     1      60.606  65.269  51.721  0.00  0.00    +0.000 C 
ATOM     34  C   UNL     1      60.370  64.756  51.120  0.00  0.00    +0.000 C 
ATOM     35  C   UNL     1      59.894  65.034  50.505  0.00  0.00    +0.000 C 
ATOM     36  C   UNL     1      59.656  65.823  50.492  0.00  0.00    +0.000 C 
ATOM     37  C   UNL     1      59.892  66.336  51.092  0.00  0.00    +0.000 C 
ATOM     38  C   UNL     1      61.974  65.095  53.773  0.00  0.00    +0.000 C 
ATOM     39  O   UNL     1      62.425  65.065  54.463  0.00  0.00    +0.000 OA
ATOM     40  N   UNL     1      61.620  65.804  53.543  0.00  0.00    +0.000 NA
ATOM     41  C   UNL     1      61.717  66.482  54.003  0.00  0.00    +0.000 C 
ATOM     42  C   UNL     1      62.169  66.451  54.692  0.00  0.00    +0.000 C 
ATOM     43  C   UNL     1      62.266  67.129  55.151  0.00  0.00    +0.000 A 
ATOM     44  C   UNL     1      62.718  67.100  55.841  0.00  0.00    +0.000 A 
ATOM     45  C   UNL     1      62.815  67.778  56.301  0.00  0.00    +0.000 A 
ATOM     46  C   UNL     1      62.462  68.486  56.071  0.00  0.00    +0.000 A 
ATOM     47  C   UNL     1      62.010  68.517  55.381  0.00  0.00    +0.000 A 
ATOM     48  C   UNL     1      61.912  67.839  54.921  0.00  0.00    +0.000 A 
ATOM     49  C   UNL     1      61.363  67.191  53.772  0.00  0.00    +0.000 C 
ATOM     50  O   UNL     1      60.912  67.221  53.082  0.00  0.00    +0.000 OA
ATOM     51  N   UNL     1      61.461  67.868  54.232  0.00  0.00    +0.000 NA
ATOM     52  C   UNL     1      61.107  68.578  54.001  0.00  0.00    +0.000 C 
ATOM     53  C   UNL     1      61.205  69.256  54.461  0.00  0.00    +0.000 C 
ATOM     54  C   UNL     1      60.850  69.965  54.231  0.00  0.00    +0.000 C 
ATOM     55  C   UNL     1      60.948  70.643  54.690  0.00  0.00    +0.000 C 
ATOM     56  C   UNL     1      60.594  71.351  54.460  0.00  0.00    +0.000 C 
ATOM     57  N   UNL     1      60.142  71.382  53.770  0.00  0.00    +0.000 NA
ATOM     58  C   UNL     1      60.655  68.608  53.312  0.00  0.00    +0.000 C 
ATOM     59  N   UNL     1      60.301  69.316  53.081  0.00  0.00    +0.000 NA
ATOM     60  O   UNL     1      60.557  67.930  52.852  0.00  0.00    +0.000 OA
ENDROOT
TORSDOF 0
ENDMDL
MODEL 4
REMARK VINA RESULT:   -16.302      2.614      4.953
REMARK INTER + INTRA:         -16.302
REMARK INTER:                 -16.302
REMARK INTRA:                   0.000
REMARK UNBOUND:                 0.000
ROOT
REMARK  Name = pralmorelin
REMARK                            x       y       z     vdW  Elec       q    Type
REMARK                         _______ _______ _______ _____ _____    ______ ____
ATOM      1  C   UNL     1      58.538  72.353  49.493  0.00  0.00    +0.000 C 
ATOM      2  C   UNL     1      58.716  71.583  49.256  0.00  0.00    +0.000 C 
ATOM      3  N   UNL     1      58.553  71.340  48.486  0.00  0.00    +0.000 NA
ATOM      4  C   UNL     1      59.058  71.057  49.791  0.00  0.00    +0.000 C 
ATOM      5  O   UNL     1      59.237  70.287  49.556  0.00  0.00    +0.000 OA
ATOM      6  N   UNL     1      59.221  71.300  50.563  0.00  0.00    +0.000 NA
ATOM      7  C   UNL     1      59.563  70.773  51.098  0.00  0.00    +0.000 C 
ATOM      8  C   UNL     1      59.726  71.017  51.870  0.00  0.00    +0.000 C 
ATOM      9  C   UNL     1      60.068  70.490  52.405  0.00  0.00    +0.000 A 
ATOM     10  C   UNL     1      60.247  69.720  52.169  0.00  0.00    +0.000 A 
ATOM     11  C   UNL     1      60.589  69.194  52.704  0.00  0.00    +0.000 A 
ATOM     12  C   UNL     1      60.752  69.437  53.475  0.00  0.00    +0.000 A 
ATOM     13  C   UNL     1      61.094  68.910  54.011  0.00  0.00    +0.000 A 
ATOM     14  C   UNL     1      61.257  69.154  54.781  0.00  0.00    +0.000 A 
ATOM     15  C   UNL     1      61.078  69.924  55.017  0.00  0.00    +0.000 A 
ATOM     16  C   UNL     1      60.736  70.450  54.482  0.00  0.00    +0.000 A 
ATOM     17  C   UNL     1      60.573  70.207  53.711  0.00  0.00    +0.000 A 
ATOM     18  C   UNL     1      60.231  70.734  53.176  0.00  0.00    +0.000 A 
ATOM     19  C   UNL     1      59.742  70.003  50.862  0.00  0.00    +0.000 C 
ATOM     20  O   UNL     1      59.579  69.760  50.091  0.00  0.00    +0.000 OA
ATOM     21  N   UNL     1      60.084  69.477  51.397  0.00  0.00    +0.000 NA
ATOM     22  C   UNL     1      60.263  68.707  51.162  0.00  0.00    +0.000 C 
ATOM     23  C   UNL     1      60.099  68.464  50.390  0.00  0.00    +0.000 C 
ATOM     24  C   UNL     1      60.605  68.180  51.697  0.00  0.00    +0.000 C 
ATOM     25  O   UNL     1      60.767  68.424  52.467  0.00  0.00    +0.000 OA
ATOM     26  N   UNL     1      60.783  67.410  51.461  0.00  0.00    +0.000 NA
ATOM     27  C   UNL     1      61.125  66.884  51.996  0.00  0.00    +0.000 C 
ATOM     28  C   UNL     1      61.288  67.127  52.767  0.00  0.00    +0.000 C 
ATOM     29  C   UNL     1      61.630  66.600  53.302  0.00  0.00    +0.000 C 
ATOM     30  C   UNL     1      61.838  65.818  53.146  0.00  0.00    +0.000 C 
ATOM     31  N   UNL     1      62.161  65.497  53.835  0.00  0.00    +0.000 NA
ATOM     32  C   UNL     1      62.152  66.082  54.417  0.00  0.00    +0.000 C 
ATOM     33  C   UNL     1      61.824  66.765  54.087  0.00  0.00    +0.000 C 
ATOM     34  C   UNL     1      61.744  67.446  54.545  0.00  0.00    +0.000 C 
ATOM     35  C   UNL     1      61.992  67.446  55.332  0.00  0.00    +0.000 C 
ATOM     36  C   UNL     1      62.320  66.764  55.661  0.00  0.00    +0.000 C 
ATOM     37  C   UNL     1      62.400  66.083  55.204  0.00  0.00    +0.000 C 
ATOM     38  C   UNL     1      61.304  66.114  51.760  0.00  0.00    +0.000 C 
ATOM     39  O   UNL     1      61.141  65.870  50.988  0.00  0.00    +0.000 OA
ATOM     40  N   UNL     1      61.646  65.587  52.295  0.00  0.00    +0.000 NA
ATOM     41  C   UNL     1      61.825  64.817  52.059  0.00  0.00    +0.000 C 
ATOM     42  C   UNL     1      61.662  64.574  51.287  0.00  0.00    +0.000 C 
ATOM     43  C   UNL     1      61.840  63.804  51.052  0.00  0.00    +0.000 A 
ATOM     44  C   UNL     1      61.678  63.560  50.281  0.00  0.00    +0.000 A 
ATOM     45  C   UNL     1      61.856  62.790  50.044  0.00  0.00    +0.000 A 
ATOM     46  C   UNL     1      62.198  62.264  50.579  0.00  0.00    +0.000 A 
ATOM     47  C   UNL     1      62.361  62.507  51.351  0.00  0.00    +0.000 A 
ATOM     48  C   UNL     1      62.183  63.277  51.587  0.00  0.00    +0.000 A 
ATOM     49  C   UNL     1      62.167  64.290  52.594  0.00  0.00    +0.000 C 
ATOM     50  O   UNL     1      62.330  64.534  53.365  0.00  0.00    +0.000 OA
ATOM     51  N   UNL     1      62.345  63.521  52.358  0.00  0.00    +0.000 NA
ATOM     52  C   UNL     1      62.687  62.994  52.893  0.00  0.00    +0.000 C 
ATOM     53  C   UNL     1      62.866  62.223  52.657  0.00  0.00    +0.000 C 
ATOM     54  C   UNL     1      63.208  61.696  53.192  0.00  0.00    +0.000 C 
ATOM     55  C   UNL     1      63.387  60.926  52.956  0.00  0.00    +0.000 C 
ATOM     56  C   UNL     1      63.729  60.400  53.491  0.00  0.00    +0.000 C 
ATOM     57  N   UNL     1      63.892  60.643  54.262  0.00  0.00    +0.000 NA
ATOM     58  C   UNL     1      62.851  63.237  53.664  0.00  0.00    +0.000 C 
ATOM     59  N   UNL     1      63.192  62.711  54.199  0.00  0.00    +0.000 NA
ATOM     60  O   UNL     1      62.672  64.007  53.901  0.00  0.00    +0.000 OA
ENDROOT
TORSDOF 0
ENDMDL
MODEL 5
REMARK VINA RESULT:   -16.037      2.773      4.339
REMARK INTER + INTRA:         -16.037
REMARK INTER:                 -16.037
REMARK INTRA:                   0.000
REMARK UNBOUND:                 0.000
ROOT
REMARK  Name = pralmorelin
REMARK                            x       y       z     vdW  Elec       q    Type
REMARK                         _______ _______ _______ _____ _____    ______ ____
ATOM      1  C   UNL     1      58.388  73.435  54.064  0.00  0.00    +0.000 C 
ATOM      2  C   UNL     1      58.612  72.719  54.406  0.00  0.00    +0.000 C 
ATOM      3  N   UNL     1      58.507  72.598  55.215  0.00  0.00    +0.000 NA
ATOM      4  C   UNL     1      58.942  72.124  53.939  0.00  0.00    +0.000 C 
ATOM      5  O   UNL     1      59.167  71.408  54.281  0.00  0.00    +0.000 OA
ATOM      6  N   UNL     1      59.047  72.246  53.130  0.00  0.00    +0.000 NA
ATOM      7  C   UNL     1      59.377  71.650  52.663  0.00  0.00    +0.000 C 
ATOM      8  C   UNL     1      59.481  71.772  51.853  0.00  0.00    +0.000 C 
ATOM      9  C   UNL     1      59.811  71.177  51.386  0.00  0.00    +0.000 A 
ATOM     10  C   UNL     1      60.036  70.461  51.729  0.00  0.00    +0.000 A 
ATOM     11  C   UNL     1      60.365  69.866  51.262  0.00  0.00    +0.000 A 
ATOM     12  C   UNL     1      60.470  69.988  50.452  0.00  0.00    +0.000 A 
ATOM     13  C   UNL     1      60.800  69.392  49.985  0.00  0.00    +0.000 A 
ATOM     14  C   UNL     1      60.905  69.514  49.177  0.00  0.00    +0.000 A 
ATOM     15  C   UNL     1      60.680  70.230  48.834  0.00  0.00    +0.000 A 
ATOM     16  C   UNL     1      60.351  70.825  49.301  0.00  0.00    +0.000 A 
ATOM     17  C   UNL     1      60.246  70.704  50.110  0.00  0.00    +0.000 A 
ATOM     18  C   UNL     1      59.916  71.299  50.577  0.00  0.00    +0.000 A 
ATOM     19  C   UNL     1      59.601  70.934  53.005  0.00  0.00    +0.000 C 
ATOM     20  O   UNL     1      59.496  70.813  53.814  0.00  0.00    +0.000 OA
ATOM     21  N   UNL     1      59.931  70.340  52.538  0.00  0.00    +0.000 NA
ATOM     22  C   UNL     1      60.156  69.624  52.880  0.00  0.00    +0.000 C 
ATOM     23  C   UNL     1      60.050  69.503  53.689  0.00  0.00    +0.000 C 
ATOM     24  C   UNL     1      60.485  69.028  52.413  0.00  0.00    +0.000 C 
ATOM     25  O   UNL     1      60.590  69.150  51.604  0.00  0.00    +0.000 OA
ATOM     26  N   UNL     1      60.710  68.312  52.755  0.00  0.00    +0.000 NA
ATOM     27  C   UNL     1      61.039  67.718  52.288  0.00  0.00    +0.000 C 
ATOM     28  C   UNL     1      61.145  67.839  51.480  0.00  0.00    +0.000 C 
ATOM     29  C   UNL     1      61.474  67.243  51.012  0.00  0.00    +0.000 C 
ATOM     30  C   UNL     1      61.724  66.503  51.276  0.00  0.00    +0.000 C 
ATOM     31  N   UNL     1      62.016  66.086  50.626  0.00  0.00    +0.000 NA
ATOM     32  C   UNL     1      61.947  66.570  49.961  0.00  0.00    +0.000 C 
ATOM     33  C   UNL     1      61.612  67.286  50.200  0.00  0.00    +0.000 C 
ATOM     34  C   UNL     1      61.476  67.883  49.647  0.00  0.00    +0.000 C 
ATOM     35  C   UNL     1      61.675  67.763  48.854  0.00  0.00    +0.000 C 
ATOM     36  C   UNL     1      62.009  67.048  48.616  0.00  0.00    +0.000 C 
ATOM     37  C   UNL     1      62.146  66.452  49.169  0.00  0.00    +0.000 C 
ATOM     38  C   UNL     1      61.264  67.001  52.631  0.00  0.00    +0.000 C 
ATOM     39  O   UNL     1      61.159  66.879  53.440  0.00  0.00    +0.000 OA
ATOM     40  N   UNL     1      61.594  66.406  52.163  0.00  0.00    +0.000 NA
ATOM     41  C   UNL     1      61.819  65.690  52.506  0.00  0.00    +0.000 C 
ATOM     42  C   UNL     1      61.713  65.569  53.315  0.00  0.00    +0.000 C 
ATOM     43  C   UNL     1      61.938  64.853  53.657  0.00  0.00    +0.000 A 
ATOM     44  C   UNL     1      61.834  64.731  54.466  0.00  0.00    +0.000 A 
ATOM     45  C   UNL     1      62.058  64.014  54.809  0.00  0.00    +0.000 A 
ATOM     46  C   UNL     1      62.388  63.420  54.342  0.00  0.00    +0.000 A 
ATOM     47  C   UNL     1      62.493  63.541  53.532  0.00  0.00    +0.000 A 
ATOM     48  C   UNL     1      62.268  64.258  53.190  0.00  0.00    +0.000 A 
ATOM     49  C   UNL     1      62.148  65.095  52.039  0.00  0.00    +0.000 C 
ATOM     50  O   UNL     1      62.253  65.217  51.229  0.00  0.00    +0.000 OA
ATOM     51  N   UNL     1      62.373  64.379  52.381  0.00  0.00    +0.000 NA
ATOM     52  C   UNL     1      62.703  63.784  51.914  0.00  0.00    +0.000 C 
ATOM     53  C   UNL     1      62.927  63.068  52.257  0.00  0.00    +0.000 C 
ATOM     54  C   UNL     1      63.257  62.473  51.790  0.00  0.00    +0.000 C 
ATOM     55  C   UNL     1      63.482  61.756  52.132  0.00  0.00    +0.000 C 
ATOM     56  C   UNL     1      63.811  61.162  51.665  0.00  0.00    +0.000 C 
ATOM     57  N   UNL     1      63.916  61.283  50.856  0.00  0.00    +0.000 NA
ATOM     58  C   UNL     1      62.808  63.905  51.105  0.00  0.00    +0.000 C 
ATOM     59  N   UNL     1      63.137  63.311  50.638  0.00  0.00    +0.000 NA
ATOM     60  O   UNL     1      62.583  64.621  50.762  0.00  0.00    +0.000 OA
ENDROOT
TORSDOF 0
ENDMDL
MODEL 6
REMARK VINA RESULT:   -15.598      1.708      7.729
REMARK INTER + INTRA:         -15.598
REMARK INTER:                 -15.598
REMARK INTRA:                   0.000
REMARK UNBOUND:                 0.000
ROOT
REMARK  Name = pralmorelin
REMARK                            x       y       z     vdW  Elec       q    Type
REMARK                         _______ _______ _______ _____ _____    ______ ____
ATOM      1  C   UNL     1      64.128  57.128  49.293  0.00  0.00    +0.000 C 
ATOM      2  C   UNL     1      63.959  57.845  48.920  0.00  0.00    +0.000 C 
ATOM      3  N   UNL     1      63.960  57.892  48.098  0.00  0.00    +0.000 NA
ATOM      4  C   UNL     1      63.790  58.514  49.372  0.00  0.00    +0.000 C 
ATOM      5  O   UNL     1      63.622  59.230  49.000  0.00  0.00    +0.000 OA
ATOM      6  N   UNL     1      63.790  58.467  50.196  0.00  0.00    +0.000 NA
ATOM      7  C   UNL     1      63.621  59.137  50.647  0.00  0.00    +0.000 C 
ATOM      8  C   UNL     1      63.620  59.089  51.471  0.00  0.00    +0.000 C 
ATOM      9  C   UNL     1      63.451  59.759  51.923  0.00  0.00    +0.000 A 
ATOM     10  C   UNL     1      63.282  60.476  51.550  0.00  0.00    +0.000 A 
ATOM     11  C   UNL     1      63.113  61.144  52.002  0.00  0.00    +0.000 A 
ATOM     12  C   UNL     1      63.113  61.098  52.826  0.00  0.00    +0.000 A 
ATOM     13  C   UNL     1      62.944  61.767  53.277  0.00  0.00    +0.000 A 
ATOM     14  C   UNL     1      62.943  61.720  54.100  0.00  0.00    +0.000 A 
ATOM     15  C   UNL     1      63.112  61.003  54.473  0.00  0.00    +0.000 A 
ATOM     16  C   UNL     1      63.281  60.334  54.021  0.00  0.00    +0.000 A 
ATOM     17  C   UNL     1      63.282  60.381  53.198  0.00  0.00    +0.000 A 
ATOM     18  C   UNL     1      63.451  59.711  52.747  0.00  0.00    +0.000 A 
ATOM     19  C   UNL     1      63.452  59.854  50.275  0.00  0.00    +0.000 C 
ATOM     20  O   UNL     1      63.452  59.900  49.452  0.00  0.00    +0.000 OA
ATOM     21  N   UNL     1      63.283  60.522  50.726  0.00  0.00    +0.000 NA
ATOM     22  C   UNL     1      63.114  61.239  50.355  0.00  0.00    +0.000 C 
ATOM     23  C   UNL     1      63.114  61.286  49.531  0.00  0.00    +0.000 C 
ATOM     24  C   UNL     1      62.945  61.909  50.807  0.00  0.00    +0.000 C 
ATOM     25  O   UNL     1      62.945  61.861  51.629  0.00  0.00    +0.000 OA
ATOM     26  N   UNL     1      62.776  62.626  50.434  0.00  0.00    +0.000 NA
ATOM     27  C   UNL     1      62.607  63.294  50.886  0.00  0.00    +0.000 C 
ATOM     28  C   UNL     1      62.606  63.248  51.709  0.00  0.00    +0.000 C 
ATOM     29  C   UNL     1      62.437  63.918  52.160  0.00  0.00    +0.000 C 
ATOM     30  C   UNL     1      62.259  64.667  51.867  0.00  0.00    +0.000 C 
ATOM     31  N   UNL     1      62.128  65.168  52.510  0.00  0.00    +0.000 NA
ATOM     32  C   UNL     1      62.226  64.727  53.201  0.00  0.00    +0.000 C 
ATOM     33  C   UNL     1      62.417  63.953  52.984  0.00  0.00    +0.000 C 
ATOM     34  C   UNL     1      62.547  63.383  53.566  0.00  0.00    +0.000 C 
ATOM     35  C   UNL     1      62.486  63.586  54.364  0.00  0.00    +0.000 C 
ATOM     36  C   UNL     1      62.295  64.359  54.579  0.00  0.00    +0.000 C 
ATOM     37  C   UNL     1      62.165  64.929  53.998  0.00  0.00    +0.000 C 
ATOM     38  C   UNL     1      62.438  64.011  50.513  0.00  0.00    +0.000 C 
ATOM     39  O   UNL     1      62.438  64.059  49.689  0.00  0.00    +0.000 OA
ATOM     40  N   UNL     1      62.269  64.681  50.965  0.00  0.00    +0.000 NA
ATOM     41  C   UNL     1      62.100  65.398  50.592  0.00  0.00    +0.000 C 
ATOM     42  C   UNL     1      62.100  65.445  49.768  0.00  0.00    +0.000 C 
ATOM     43  C   UNL     1      61.932  66.161  49.397  0.00  0.00    +0.000 A 
ATOM     44  C   UNL     1      61.932  66.209  48.573  0.00  0.00    +0.000 A 
ATOM     45  C   UNL     1      61.763  66.926  48.201  0.00  0.00    +0.000 A 
ATOM     46  C   UNL     1      61.594  67.595  48.652  0.00  0.00    +0.000 A 
ATOM     47  C   UNL     1      61.594  67.548  49.476  0.00  0.00    +0.000 A 
ATOM     48  C   UNL     1      61.762  66.831  49.849  0.00  0.00    +0.000 A 
ATOM     49  C   UNL     1      61.931  66.068  51.044  0.00  0.00    +0.000 C 
ATOM     50  O   UNL     1      61.931  66.020  51.868  0.00  0.00    +0.000 OA
ATOM     51  N   UNL     1      61.762  66.783  50.671  0.00  0.00    +0.000 NA
ATOM     52  C   UNL     1      61.593  67.453  51.123  0.00  0.00    +0.000 C 
ATOM     53  C   UNL     1      61.424  68.170  50.751  0.00  0.00    +0.000 C 
ATOM     54  C   UNL     1      61.255  68.840  51.202  0.00  0.00    +0.000 C 
ATOM     55  C   UNL     1      61.086  69.556  50.830  0.00  0.00    +0.000 C 
ATOM     56  C   UNL     1      60.917  70.225  51.281  0.00  0.00    +0.000 C 
ATOM     57  N   UNL     1      60.917  70.178  52.105  0.00  0.00    +0.000 NA
ATOM     58  C   UNL     1      61.592  67.406  51.947  0.00  0.00    +0.000 C 
ATOM     59  N   UNL     1      61.423  68.075  52.398  0.00  0.00    +0.000 NA
ATOM     60  O   UNL     1      61.761  66.690  52.319  0.00  0.00    +0.000 OA
ENDROOT
TORSDOF 0
ENDMDL
MODEL 7
REMARK VINA RESULT:   -15.529      4.131      6.672
REMARK INTER + INTRA:         -15.529
REMARK INTER:                 -15.529
REMARK INTRA:                   0.000
REMARK UNBOUND:                 0.000
ROOT
REMARK  Name = pralmorelin
REMARK                            x       y       z     vdW  Elec       q    Type
REMARK                         _______ _______ _______ _____ _____    ______ ____
ATOM      1  C   UNL     1      58.001  75.539  56.148  0.00  0.00    +0.000 C 
ATOM      2  C   UNL     1      58.345  74.820  56.362  0.00  0.00    +0.000 C 
ATOM      3  N   UNL     1      58.510  74.661  57.153  0.00  0.00    +0.000 NA
ATOM      4  C   UNL     1      58.523  74.261  55.783  0.00  0.00    +0.000 C 
ATOM      5  O   UNL     1      58.867  73.542  55.995  0.00  0.00    +0.000 OA
ATOM      6  N   UNL     1      58.357  74.420  54.990  0.00  0.00    +0.000 NA
ATOM      7  C   UNL     1      58.536  73.860  54.410  0.00  0.00    +0.000 C 
ATOM      8  C   UNL     1      58.370  74.020  53.618  0.00  0.00    +0.000 C 
ATOM      9  C   UNL     1      58.548  73.459  53.039  0.00  0.00    +0.000 A 
ATOM     10  C   UNL     1      58.892  72.740  53.252  0.00  0.00    +0.000 A 
ATOM     11  C   UNL     1      59.070  72.181  52.673  0.00  0.00    +0.000 A 
ATOM     12  C   UNL     1      58.905  72.340  51.880  0.00  0.00    +0.000 A 
ATOM     13  C   UNL     1      59.083  71.780  51.301  0.00  0.00    +0.000 A 
ATOM     14  C   UNL     1      58.917  71.940  50.509  0.00  0.00    +0.000 A 
ATOM     15  C   UNL     1      58.573  72.659  50.296  0.00  0.00    +0.000 A 
ATOM     16  C   UNL     1      58.395  73.218  50.875  0.00  0.00    +0.000 A 
ATOM     17  C   UNL     1      58.561  73.059  51.667  0.00  0.00    +0.000 A 
ATOM     18  C   UNL     1      58.382  73.619  52.246  0.00  0.00    +0.000 A 
ATOM     19  C   UNL     1      58.880  73.141  54.624  0.00  0.00    +0.000 C 
ATOM     20  O   UNL     1      59.045  72.982  55.415  0.00  0.00    +0.000 OA
ATOM     21  N   UNL     1      59.058  72.581  54.045  0.00  0.00    +0.000 NA
ATOM     22  C   UNL     1      59.402  71.863  54.257  0.00  0.00    +0.000 C 
ATOM     23  C   UNL     1      59.567  71.704  55.050  0.00  0.00    +0.000 C 
ATOM     24  C   UNL     1      59.580  71.303  53.678  0.00  0.00    +0.000 C 
ATOM     25  O   UNL     1      59.414  71.462  52.886  0.00  0.00    +0.000 OA
ATOM     26  N   UNL     1      59.924  70.584  53.891  0.00  0.00    +0.000 NA
ATOM     27  C   UNL     1      60.102  70.024  53.312  0.00  0.00    +0.000 C 
ATOM     28  C   UNL     1      59.937  70.183  52.520  0.00  0.00    +0.000 C 
ATOM     29  C   UNL     1      60.115  69.623  51.941  0.00  0.00    +0.000 C 
ATOM     30  C   UNL     1      60.458  68.885  52.070  0.00  0.00    +0.000 C 
ATOM     31  N   UNL     1      60.536  68.508  51.339  0.00  0.00    +0.000 NA
ATOM     32  C   UNL     1      60.242  69.015  50.758  0.00  0.00    +0.000 C 
ATOM     33  C   UNL     1      59.981  69.705  51.130  0.00  0.00    +0.000 C 
ATOM     34  C   UNL     1      59.656  70.317  50.683  0.00  0.00    +0.000 C 
ATOM     35  C   UNL     1      59.592  70.240  49.863  0.00  0.00    +0.000 C 
ATOM     36  C   UNL     1      59.853  69.551  49.493  0.00  0.00    +0.000 C 
ATOM     37  C   UNL     1      60.177  68.939  49.939  0.00  0.00    +0.000 C 
ATOM     38  C   UNL     1      60.446  69.305  53.525  0.00  0.00    +0.000 C 
ATOM     39  O   UNL     1      60.612  69.146  54.317  0.00  0.00    +0.000 OA
ATOM     40  N   UNL     1      60.624  68.745  52.946  0.00  0.00    +0.000 NA
ATOM     41  C   UNL     1      60.968  68.026  53.159  0.00  0.00    +0.000 C 
ATOM     42  C   UNL     1      61.134  67.867  53.952  0.00  0.00    +0.000 C 
ATOM     43  C   UNL     1      61.478  67.149  54.164  0.00  0.00    +0.000 A 
ATOM     44  C   UNL     1      61.644  66.989  54.956  0.00  0.00    +0.000 A 
ATOM     45  C   UNL     1      61.988  66.270  55.170  0.00  0.00    +0.000 A 
ATOM     46  C   UNL     1      62.166  65.710  54.591  0.00  0.00    +0.000 A 
ATOM     47  C   UNL     1      62.000  65.869  53.798  0.00  0.00    +0.000 A 
ATOM     48  C   UNL     1      61.656  66.588  53.585  0.00  0.00    +0.000 A 
ATOM     49  C   UNL     1      61.147  67.466  52.579  0.00  0.00    +0.000 C 
ATOM     50  O   UNL     1      60.981  67.626  51.787  0.00  0.00    +0.000 OA
ATOM     51  N   UNL     1      61.491  66.748  52.793  0.00  0.00    +0.000 NA
ATOM     52  C   UNL     1      61.669  66.188  52.214  0.00  0.00    +0.000 C 
ATOM     53  C   UNL     1      62.013  65.469  52.427  0.00  0.00    +0.000 C 
ATOM     54  C   UNL     1      62.191  64.909  51.848  0.00  0.00    +0.000 C 
ATOM     55  C   UNL     1      62.535  64.190  52.061  0.00  0.00    +0.000 C 
ATOM     56  C   UNL     1      62.713  63.631  51.482  0.00  0.00    +0.000 C 
ATOM     57  N   UNL     1      62.548  63.790  50.689  0.00  0.00    +0.000 NA
ATOM     58  C   UNL     1      61.503  66.347  51.421  0.00  0.00    +0.000 C 
ATOM     59  N   UNL     1      61.681  65.788  50.842  0.00  0.00    +0.000 NA
ATOM     60  O   UNL     1      61.159  67.066  51.208  0.00  0.00    +0.000 OA
ENDROOT
TORSDOF 0
ENDMDL
MODEL 8
REMARK VINA RESULT:   -15.326      2.301      4.590
REMARK INTER + INTRA:         -15.326
REMARK INTER:                 -15.326
REMARK INTRA:                   0.000
REMARK UNBOUND:                 0.000
ROOT
REMARK  Name = pralmorelin
REMARK                            x       y       z     vdW  Elec       q    Type
REMARK                         _______ _______ _______ _____ _____    ______ ____
ATOM      1  C   UNL     1      59.002  72.979  53.897  0.00  0.00    +0.000 C 
ATOM      2  C   UNL     1      58.875  72.439  53.286  0.00  0.00    +0.000 C 
ATOM      3  N   UNL     1      58.377  72.636  52.660  0.00  0.00    +0.000 NA
ATOM      4  C   UNL     1      59.245  71.702  53.304  0.00  0.00    +0.000 C 
ATOM      5  O   UNL     1      59.119  71.162  52.693  0.00  0.00    +0.000 OA
ATOM      6  N   UNL     1      59.744  71.505  53.931  0.00  0.00    +0.000 NA
ATOM      7  C   UNL     1      60.114  70.768  53.948  0.00  0.00    +0.000 C 
ATOM      8  C   UNL     1      60.612  70.571  54.576  0.00  0.00    +0.000 C 
ATOM      9  C   UNL     1      60.983  69.834  54.593  0.00  0.00    +0.000 A 
ATOM     10  C   UNL     1      60.856  69.294  53.982  0.00  0.00    +0.000 A 
ATOM     11  C   UNL     1      61.226  68.558  53.999  0.00  0.00    +0.000 A 
ATOM     12  C   UNL     1      61.724  68.360  54.627  0.00  0.00    +0.000 A 
ATOM     13  C   UNL     1      62.095  67.623  54.643  0.00  0.00    +0.000 A 
ATOM     14  C   UNL     1      62.592  67.427  55.271  0.00  0.00    +0.000 A 
ATOM     15  C   UNL     1      62.720  67.967  55.881  0.00  0.00    +0.000 A 
ATOM     16  C   UNL     1      62.349  68.703  55.864  0.00  0.00    +0.000 A 
ATOM     17  C   UNL     1      61.852  68.900  55.237  0.00  0.00    +0.000 A 
ATOM     18  C   UNL     1      61.481  69.637  55.221  0.00  0.00    +0.000 A 
ATOM     19  C   UNL     1      59.987  70.228  53.337  0.00  0.00    +0.000 C 
ATOM     20  O   UNL     1      59.489  70.425  52.710  0.00  0.00    +0.000 OA
ATOM     21  N   UNL     1      60.357  69.492  53.354  0.00  0.00    +0.000 NA
ATOM     22  C   UNL     1      60.231  68.952  52.744  0.00  0.00    +0.000 C 
ATOM     23  C   UNL     1      59.732  69.149  52.116  0.00  0.00    +0.000 C 
ATOM     24  C   UNL     1      60.601  68.214  52.761  0.00  0.00    +0.000 C 
ATOM     25  O   UNL     1      61.099  68.018  53.388  0.00  0.00    +0.000 OA
ATOM     26  N   UNL     1      60.474  67.675  52.150  0.00  0.00    +0.000 NA
ATOM     27  C   UNL     1      60.844  66.938  52.167  0.00  0.00    +0.000 C 
ATOM     28  C   UNL     1      61.342  66.741  52.794  0.00  0.00    +0.000 C 
ATOM     29  C   UNL     1      61.713  66.004  52.811  0.00  0.00    +0.000 C 
ATOM     30  C   UNL     1      61.638  65.411  52.243  0.00  0.00    +0.000 C 
ATOM     31  N   UNL     1      62.103  64.771  52.479  0.00  0.00    +0.000 NA
ATOM     32  C   UNL     1      62.464  64.969  53.195  0.00  0.00    +0.000 C 
ATOM     33  C   UNL     1      62.223  65.731  53.400  0.00  0.00    +0.000 C 
ATOM     34  C   UNL     1      62.499  66.078  54.096  0.00  0.00    +0.000 C 
ATOM     35  C   UNL     1      63.016  65.662  54.586  0.00  0.00    +0.000 C 
ATOM     36  C   UNL     1      63.256  64.901  54.381  0.00  0.00    +0.000 C 
ATOM     37  C   UNL     1      62.981  64.554  53.686  0.00  0.00    +0.000 C 
ATOM     38  C   UNL     1      60.717  66.398  51.556  0.00  0.00    +0.000 C 
ATOM     39  O   UNL     1      60.219  66.595  50.928  0.00  0.00    +0.000 OA
ATOM     40  N   UNL     1      61.088  65.661  51.573  0.00  0.00    +0.000 NA
ATOM     41  C   UNL     1      60.960  65.121  50.962  0.00  0.00    +0.000 C 
ATOM     42  C   UNL     1      60.462  65.319  50.334  0.00  0.00    +0.000 C 
ATOM     43  C   UNL     1      60.335  64.779  49.724  0.00  0.00    +0.000 A 
ATOM     44  C   UNL     1      59.837  64.975  49.096  0.00  0.00    +0.000 A 
ATOM     45  C   UNL     1      59.710  64.435  48.485  0.00  0.00    +0.000 A 
ATOM     46  C   UNL     1      60.080  63.699  48.503  0.00  0.00    +0.000 A 
ATOM     47  C   UNL     1      60.578  63.502  49.130  0.00  0.00    +0.000 A 
ATOM     48  C   UNL     1      60.706  64.041  49.741  0.00  0.00    +0.000 A 
ATOM     49  C   UNL     1      61.331  64.384  50.979  0.00  0.00    +0.000 C 
ATOM     50  O   UNL     1      61.829  64.187  51.607  0.00  0.00    +0.000 OA
ATOM     51  N   UNL     1      61.203  63.845  50.368  0.00  0.00    +0.000 NA
ATOM     52  C   UNL     1      61.574  63.108  50.385  0.00  0.00    +0.000 C 
ATOM     53  C   UNL     1      61.446  62.568  49.774  0.00  0.00    +0.000 C 
ATOM     54  C   UNL     1      61.817  61.831  49.791  0.00  0.00    +0.000 C 
ATOM     55  C   UNL     1      61.690  61.291  49.180  0.00  0.00    +0.000 C 
ATOM     56  C   UNL     1      62.060  60.555  49.197  0.00  0.00    +0.000 C 
ATOM     57  N   UNL     1      62.558  60.357  49.825  0.00  0.00    +0.000 NA
ATOM     58  C   UNL     1      62.072  62.910  51.013  0.00  0.00    +0.000 C 
ATOM     59  N   UNL     1      62.443  62.174  51.030  0.00  0.00    +0.000 NA
ATOM     60  O   UNL     1      62.199  63.450  51.624  0.00  0.00    +0.000 OA
ENDROOT
TORSDOF 0
ENDMDL
MODEL 9
REMARK VINA RESULT:   -15.149      1.780      6.966
REMARK INTER + INTRA:         -15.149
REMARK INTER:                 -15.149
REMARK INTRA:                   0.000
REMARK UNBOUND:                 0.000
ROOT
REMARK  Name = pralmorelin
REMARK                            x       y       z     vdW  Elec       q    Type
REMARK                         _______ _______ _______ _____ _____    ______ ____
ATOM      1  C   UNL     1      63.771  57.962  53.970  0.00  0.00    +0.000 C 
ATOM      2  C   UNL     1      63.556  58.697  54.278  0.00  0.00    +0.000 C 
ATOM      3  N   UNL     1      63.460  58.790  55.091  0.00  0.00    +0.000 NA
ATOM      4  C   UNL     1      63.438  59.337  53.772  0.00  0.00    +0.000 C 
ATOM      5  O   UNL     1      63.223  60.072  54.079  0.00  0.00    +0.000 OA
ATOM      6  N   UNL     1      63.534  59.243  52.958  0.00  0.00    +0.000 NA
ATOM      7  C   UNL     1      63.416  59.885  52.452  0.00  0.00    +0.000 C 
ATOM      8  C   UNL     1      63.513  59.790  51.638  0.00  0.00    +0.000 C 
ATOM      9  C   UNL     1      63.395  60.431  51.132  0.00  0.00    +0.000 A 
ATOM     10  C   UNL     1      63.180  61.166  51.440  0.00  0.00    +0.000 A 
ATOM     11  C   UNL     1      63.062  61.806  50.934  0.00  0.00    +0.000 A 
ATOM     12  C   UNL     1      63.159  61.713  50.120  0.00  0.00    +0.000 A 
ATOM     13  C   UNL     1      63.041  62.354  49.613  0.00  0.00    +0.000 A 
ATOM     14  C   UNL     1      63.137  62.260  48.800  0.00  0.00    +0.000 A 
ATOM     15  C   UNL     1      63.352  61.525  48.492  0.00  0.00    +0.000 A 
ATOM     16  C   UNL     1      63.470  60.885  48.998  0.00  0.00    +0.000 A 
ATOM     17  C   UNL     1      63.373  60.978  49.811  0.00  0.00    +0.000 A 
ATOM     18  C   UNL     1      63.492  60.337  50.317  0.00  0.00    +0.000 A 
ATOM     19  C   UNL     1      63.202  60.619  52.760  0.00  0.00    +0.000 C 
ATOM     20  O   UNL     1      63.105  60.713  53.573  0.00  0.00    +0.000 OA
ATOM     21  N   UNL     1      63.084  61.260  52.254  0.00  0.00    +0.000 NA
ATOM     22  C   UNL     1      62.869  61.994  52.561  0.00  0.00    +0.000 C 
ATOM     23  C   UNL     1      62.773  62.088  53.375  0.00  0.00    +0.000 C 
ATOM     24  C   UNL     1      62.751  62.635  52.055  0.00  0.00    +0.000 C 
ATOM     25  O   UNL     1      62.848  62.541  51.242  0.00  0.00    +0.000 OA
ATOM     26  N   UNL     1      62.536  63.370  52.363  0.00  0.00    +0.000 NA
ATOM     27  C   UNL     1      62.419  64.010  51.857  0.00  0.00    +0.000 C 
ATOM     28  C   UNL     1      62.515  63.917  51.044  0.00  0.00    +0.000 C 
ATOM     29  C   UNL     1      62.397  64.558  50.538  0.00  0.00    +0.000 C 
ATOM     30  C   UNL     1      62.182  65.321  50.764  0.00  0.00    +0.000 C 
ATOM     31  N   UNL     1      62.125  65.783  50.083  0.00  0.00    +0.000 NA
ATOM     32  C   UNL     1      62.305  65.305  49.435  0.00  0.00    +0.000 C 
ATOM     33  C   UNL     1      62.473  64.547  49.716  0.00  0.00    +0.000 C 
ATOM     34  C   UNL     1      62.673  63.946  49.188  0.00  0.00    +0.000 C 
ATOM     35  C   UNL     1      62.705  64.103  48.378  0.00  0.00    +0.000 C 
ATOM     36  C   UNL     1      62.538  64.860  48.098  0.00  0.00    +0.000 C 
ATOM     37  C   UNL     1      62.337  65.461  48.625  0.00  0.00    +0.000 C 
ATOM     38  C   UNL     1      62.204  64.745  52.165  0.00  0.00    +0.000 C 
ATOM     39  O   UNL     1      62.107  64.840  52.979  0.00  0.00    +0.000 OA
ATOM     40  N   UNL     1      62.086  65.386  51.659  0.00  0.00    +0.000 NA
ATOM     41  C   UNL     1      61.871  66.121  51.967  0.00  0.00    +0.000 C 
ATOM     42  C   UNL     1      61.775  66.215  52.782  0.00  0.00    +0.000 C 
ATOM     43  C   UNL     1      61.560  66.949  53.089  0.00  0.00    +0.000 A 
ATOM     44  C   UNL     1      61.463  67.044  53.903  0.00  0.00    +0.000 A 
ATOM     45  C   UNL     1      61.249  67.778  54.211  0.00  0.00    +0.000 A 
ATOM     46  C   UNL     1      61.131  68.419  53.705  0.00  0.00    +0.000 A 
ATOM     47  C   UNL     1      61.227  68.325  52.891  0.00  0.00    +0.000 A 
ATOM     48  C   UNL     1      61.442  67.590  52.583  0.00  0.00    +0.000 A 
ATOM     49  C   UNL     1      61.753  66.762  51.461  0.00  0.00    +0.000 C 
ATOM     50  O   UNL     1      61.850  66.668  50.647  0.00  0.00    +0.000 OA
ATOM     51  N   UNL     1      61.539  67.496  51.770  0.00  0.00    +0.000 NA
ATOM     52  C   UNL     1      61.420  68.137  51.264  0.00  0.00    +0.000 C 
ATOM     53  C   UNL     1      61.206  68.872  51.572  0.00  0.00    +0.000 C 
ATOM     54  C   UNL     1      61.088  69.513  51.066  0.00  0.00    +0.000 C 
ATOM     55  C   UNL     1      60.873  70.248  51.374  0.00  0.00    +0.000 C 
ATOM     56  C   UNL     1      60.755  70.888  50.868  0.00  0.00    +0.000 C 
ATOM     57  N   UNL     1      60.851  70.795  50.054  0.00  0.00    +0.000 NA
ATOM     58  C   UNL     1      61.517  68.044  50.449  0.00  0.00    +0.000 C 
ATOM     59  N   UNL     1      61.399  68.684  49.943  0.00  0.00    +0.000 NA
ATOM     60  O   UNL     1      61.731  67.309  50.141  0.00  0.00    +0.000 OA
ENDROOT
TORSDOF 0
ENDMDL
