MODEL 1
REMARK VINA RESULT:   -12.685      0.000      0.000
REMARK INTER + INTRA:         -12.685
REMARK INTER:                 -12.685
REMARK INTRA:                   0.000
REMARK UNBOUND:                 0.000
ROOT
REMARK  Name = prasugrel
REMARK                            x       y       z     vdW  Elec       q    Type
REMARK                         _______ _______ _______ _____ _____    ______ ____
ATOM      1  C   UNL     1      61.906  62.095  64.617  0.00  0.00    +0.000 C 
ATOM      2  C   UNL     1      61.701  62.084  65.416  0.00  0.00    +0.000 C 
ATOM      3  O   UNL     1      61.723  61.376  65.839  0.00  0.00    +0.000 OA
ATOM      4  O   UNL     1      61.475  62.783  65.794  0.00  0.00    +0.000 OA
ATOM      5  C   UNL     1      61.270  62.773  66.593  0.00  0.00    +0.000 A 
ATOM      6  C   UNL     1      61.034  63.423  67.042  0.00  0.00    +0.000 A 
ATOM      7  C   UNL     1      60.883  63.162  67.809  0.00  0.00    +0.000 A 
ATOM      8  C   UNL     1      61.026  62.350  67.835  0.00  0.00    +0.000 A 
ATOM      9  C   UNL     1      60.920  61.936  68.541  0.00  0.00    +0.000 C 
ATOM     10  C   UNL     1      60.671  62.332  69.219  0.00  0.00    +0.000 C 
ATOM     11  N   UNL     1      60.528  63.144  69.193  0.00  0.00    +0.000 NA
ATOM     12  C   UNL     1      60.634  63.560  68.488  0.00  0.00    +0.000 C 
ATOM     13  C   UNL     1      60.279  63.542  69.872  0.00  0.00    +0.000 C 
ATOM     14  C   UNL     1      60.173  63.126  70.577  0.00  0.00    +0.000 C 
ATOM     15  O   UNL     1      59.924  63.524  71.256  0.00  0.00    +0.000 OA
ATOM     16  C   UNL     1      60.317  62.314  70.603  0.00  0.00    +0.000 C 
ATOM     17  C   UNL     1      60.543  61.617  70.227  0.00  0.00    +0.000 C 
ATOM     18  C   UNL     1      60.338  61.606  71.026  0.00  0.00    +0.000 C 
ATOM     19  C   UNL     1      60.136  64.354  69.845  0.00  0.00    +0.000 A 
ATOM     20  C   UNL     1      59.887  64.750  70.525  0.00  0.00    +0.000 A 
ATOM     21  F   UNL     1      59.781  64.336  71.230  0.00  0.00    +0.000 F 
ATOM     22  C   UNL     1      59.744  65.562  70.499  0.00  0.00    +0.000 A 
ATOM     23  C   UNL     1      59.850  65.978  69.793  0.00  0.00    +0.000 A 
ATOM     24  C   UNL     1      60.099  65.580  69.115  0.00  0.00    +0.000 A 
ATOM     25  C   UNL     1      60.242  64.768  69.141  0.00  0.00    +0.000 A 
ATOM     26  S   UNL     1      61.265  62.109  67.084  0.00  0.00    +0.000 S 
ENDROOT
TORSDOF 0
ENDMDL
MODEL 2
REMARK VINA RESULT:   -12.670      2.119      2.820
REMARK INTER + INTRA:         -12.670
REMARK INTER:                 -12.670
REMARK INTRA:                   0.000
REMARK UNBOUND:                 0.000
ROOT
REMARK  Name = prasugrel
REMARK                            x       y       z     vdW  Elec       q    Type
REMARK                         _______ _______ _______ _____ _____    ______ ____
ATOM      1  C   UNL     1      59.383  61.972  66.106  0.00  0.00    +0.000 C 
ATOM      2  C   UNL     1      59.920  62.350  66.606  0.00  0.00    +0.000 C 
ATOM      3  O   UNL     1      60.551  62.776  66.289  0.00  0.00    +0.000 OA
ATOM      4  O   UNL     1      59.826  62.300  67.425  0.00  0.00    +0.000 OA
ATOM      5  C   UNL     1      60.363  62.677  67.926  0.00  0.00    +0.000 A 
ATOM      6  C   UNL     1      60.340  62.677  68.750  0.00  0.00    +0.000 A 
ATOM      7  C   UNL     1      60.980  63.120  69.023  0.00  0.00    +0.000 A 
ATOM      8  C   UNL     1      61.398  63.395  68.367  0.00  0.00    +0.000 A 
ATOM      9  C   UNL     1      62.072  63.859  68.473  0.00  0.00    +0.000 C 
ATOM     10  C   UNL     1      62.328  64.048  69.233  0.00  0.00    +0.000 C 
ATOM     11  N   UNL     1      61.910  63.773  69.889  0.00  0.00    +0.000 NA
ATOM     12  C   UNL     1      61.236  63.309  69.785  0.00  0.00    +0.000 C 
ATOM     13  C   UNL     1      62.165  63.962  70.650  0.00  0.00    +0.000 C 
ATOM     14  C   UNL     1      62.839  64.426  70.756  0.00  0.00    +0.000 C 
ATOM     15  O   UNL     1      63.095  64.615  71.517  0.00  0.00    +0.000 OA
ATOM     16  C   UNL     1      63.258  64.701  70.100  0.00  0.00    +0.000 C 
ATOM     17  C   UNL     1      63.352  64.750  69.282  0.00  0.00    +0.000 C 
ATOM     18  C   UNL     1      63.888  65.127  69.783  0.00  0.00    +0.000 C 
ATOM     19  C   UNL     1      61.746  63.687  71.306  0.00  0.00    +0.000 A 
ATOM     20  C   UNL     1      62.003  63.877  72.067  0.00  0.00    +0.000 A 
ATOM     21  F   UNL     1      62.676  64.340  72.173  0.00  0.00    +0.000 F 
ATOM     22  C   UNL     1      61.585  63.602  72.723  0.00  0.00    +0.000 A 
ATOM     23  C   UNL     1      60.910  63.138  72.618  0.00  0.00    +0.000 A 
ATOM     24  C   UNL     1      60.655  62.949  71.857  0.00  0.00    +0.000 A 
ATOM     25  C   UNL     1      61.073  63.224  71.201  0.00  0.00    +0.000 A 
ATOM     26  S   UNL     1      61.017  63.121  67.689  0.00  0.00    +0.000 S 
ENDROOT
TORSDOF 0
ENDMDL
MODEL 3
REMARK VINA RESULT:   -12.559      2.992      4.038
REMARK INTER + INTRA:         -12.559
REMARK INTER:                 -12.559
REMARK INTRA:                   0.000
REMARK UNBOUND:                 0.000
ROOT
REMARK  Name = prasugrel
REMARK                            x       y       z     vdW  Elec       q    Type
REMARK                         _______ _______ _______ _____ _____    ______ ____
ATOM      1  C   UNL     1      65.381  66.890  69.849  0.00  0.00    +0.000 C 
ATOM      2  C   UNL     1      64.835  66.353  70.155  0.00  0.00    +0.000 C 
ATOM      3  O   UNL     1      64.754  66.266  70.972  0.00  0.00    +0.000 OA
ATOM      4  O   UNL     1      64.370  65.900  69.645  0.00  0.00    +0.000 OA
ATOM      5  C   UNL     1      63.824  65.363  69.951  0.00  0.00    +0.000 A 
ATOM      6  C   UNL     1      63.324  64.876  69.511  0.00  0.00    +0.000 A 
ATOM      7  C   UNL     1      62.874  64.430  70.039  0.00  0.00    +0.000 A 
ATOM      8  C   UNL     1      63.096  64.641  70.805  0.00  0.00    +0.000 A 
ATOM      9  C   UNL     1      62.734  64.281  71.453  0.00  0.00    +0.000 C 
ATOM     10  C   UNL     1      62.151  63.710  71.336  0.00  0.00    +0.000 C 
ATOM     11  N   UNL     1      61.929  63.499  70.570  0.00  0.00    +0.000 NA
ATOM     12  C   UNL     1      62.290  63.859  69.921  0.00  0.00    +0.000 C 
ATOM     13  C   UNL     1      61.346  62.928  70.451  0.00  0.00    +0.000 C 
ATOM     14  C   UNL     1      60.984  62.567  71.100  0.00  0.00    +0.000 C 
ATOM     15  O   UNL     1      60.401  61.996  70.981  0.00  0.00    +0.000 OA
ATOM     16  C   UNL     1      61.206  62.779  71.866  0.00  0.00    +0.000 C 
ATOM     17  C   UNL     1      61.670  63.230  72.376  0.00  0.00    +0.000 C 
ATOM     18  C   UNL     1      61.125  62.692  72.682  0.00  0.00    +0.000 C 
ATOM     19  C   UNL     1      61.124  62.717  69.685  0.00  0.00    +0.000 A 
ATOM     20  C   UNL     1      60.540  62.145  69.568  0.00  0.00    +0.000 A 
ATOM     21  F   UNL     1      60.179  61.785  70.215  0.00  0.00    +0.000 F 
ATOM     22  C   UNL     1      60.318  61.934  68.802  0.00  0.00    +0.000 A 
ATOM     23  C   UNL     1      60.680  62.295  68.153  0.00  0.00    +0.000 A 
ATOM     24  C   UNL     1      61.263  62.866  68.271  0.00  0.00    +0.000 A 
ATOM     25  C   UNL     1      61.485  63.077  69.037  0.00  0.00    +0.000 A 
ATOM     26  S   UNL     1      63.683  65.218  70.751  0.00  0.00    +0.000 S 
ENDROOT
TORSDOF 0
ENDMDL
MODEL 4
REMARK VINA RESULT:   -12.510      2.377      4.704
REMARK INTER + INTRA:         -12.510
REMARK INTER:                 -12.510
REMARK INTRA:                   0.000
REMARK UNBOUND:                 0.000
ROOT
REMARK  Name = prasugrel
REMARK                            x       y       z     vdW  Elec       q    Type
REMARK                         _______ _______ _______ _____ _____    ______ ____
ATOM      1  C   UNL     1      62.436  64.891  70.741  0.00  0.00    +0.000 C 
ATOM      2  C   UNL     1      61.982  64.509  70.168  0.00  0.00    +0.000 C 
ATOM      3  O   UNL     1      61.177  64.383  70.295  0.00  0.00    +0.000 OA
ATOM      4  O   UNL     1      62.334  64.253  69.466  0.00  0.00    +0.000 OA
ATOM      5  C   UNL     1      61.880  63.870  68.893  0.00  0.00    +0.000 A 
ATOM      6  C   UNL     1      62.153  63.585  68.169  0.00  0.00    +0.000 A 
ATOM      7  C   UNL     1      61.515  63.245  67.772  0.00  0.00    +0.000 A 
ATOM      8  C   UNL     1      60.847  63.320  68.251  0.00  0.00    +0.000 A 
ATOM      9  C   UNL     1      60.120  63.026  67.994  0.00  0.00    +0.000 C 
ATOM     10  C   UNL     1      60.061  62.658  67.259  0.00  0.00    +0.000 C 
ATOM     11  N   UNL     1      60.728  62.582  66.780  0.00  0.00    +0.000 NA
ATOM     12  C   UNL     1      61.456  62.876  67.036  0.00  0.00    +0.000 C 
ATOM     13  C   UNL     1      60.670  62.214  66.044  0.00  0.00    +0.000 C 
ATOM     14  C   UNL     1      59.942  61.920  65.787  0.00  0.00    +0.000 C 
ATOM     15  O   UNL     1      59.883  61.552  65.052  0.00  0.00    +0.000 OA
ATOM     16  C   UNL     1      59.274  61.995  66.266  0.00  0.00    +0.000 C 
ATOM     17  C   UNL     1      58.923  62.251  66.967  0.00  0.00    +0.000 C 
ATOM     18  C   UNL     1      58.469  61.869  66.394  0.00  0.00    +0.000 C 
ATOM     19  C   UNL     1      61.337  62.139  65.565  0.00  0.00    +0.000 A 
ATOM     20  C   UNL     1      61.277  61.770  64.830  0.00  0.00    +0.000 A 
ATOM     21  F   UNL     1      60.551  61.477  64.573  0.00  0.00    +0.000 F 
ATOM     22  C   UNL     1      61.945  61.695  64.351  0.00  0.00    +0.000 A 
ATOM     23  C   UNL     1      62.673  61.988  64.608  0.00  0.00    +0.000 A 
ATOM     24  C   UNL     1      62.731  62.357  65.343  0.00  0.00    +0.000 A 
ATOM     25  C   UNL     1      62.064  62.432  65.822  0.00  0.00    +0.000 A 
ATOM     26  S   UNL     1      61.072  63.706  68.944  0.00  0.00    +0.000 S 
ENDROOT
TORSDOF 0
ENDMDL
MODEL 5
REMARK VINA RESULT:   -12.247      2.311      2.516
REMARK INTER + INTRA:         -12.247
REMARK INTER:                 -12.247
REMARK INTRA:                   0.000
REMARK UNBOUND:                 0.000
ROOT
REMARK  Name = prasugrel
REMARK                            x       y       z     vdW  Elec       q    Type
REMARK                         _______ _______ _______ _____ _____    ______ ____
ATOM      1  C   UNL     1      59.983  62.082  65.964  0.00  0.00    +0.000 C 
ATOM      2  C   UNL     1      60.129  62.269  66.754  0.00  0.00    +0.000 C 
ATOM      3  O   UNL     1      59.617  62.002  67.343  0.00  0.00    +0.000 OA
ATOM      4  O   UNL     1      60.788  62.723  66.955  0.00  0.00    +0.000 OA
ATOM      5  C   UNL     1      60.935  62.910  67.745  0.00  0.00    +0.000 A 
ATOM      6  C   UNL     1      61.567  63.357  68.029  0.00  0.00    +0.000 A 
ATOM      7  C   UNL     1      61.497  63.406  68.849  0.00  0.00    +0.000 A 
ATOM      8  C   UNL     1      60.821  62.990  69.073  0.00  0.00    +0.000 A 
ATOM      9  C   UNL     1      60.610  62.944  69.869  0.00  0.00    +0.000 C 
ATOM     10  C   UNL     1      61.074  63.314  70.441  0.00  0.00    +0.000 C 
ATOM     11  N   UNL     1      61.751  63.730  70.217  0.00  0.00    +0.000 NA
ATOM     12  C   UNL     1      61.963  63.777  69.422  0.00  0.00    +0.000 C 
ATOM     13  C   UNL     1      62.216  64.100  70.789  0.00  0.00    +0.000 C 
ATOM     14  C   UNL     1      62.004  64.054  71.586  0.00  0.00    +0.000 C 
ATOM     15  O   UNL     1      62.469  64.425  72.158  0.00  0.00    +0.000 OA
ATOM     16  C   UNL     1      61.328  63.638  71.810  0.00  0.00    +0.000 C 
ATOM     17  C   UNL     1      60.670  63.185  71.609  0.00  0.00    +0.000 C 
ATOM     18  C   UNL     1      60.816  63.372  72.399  0.00  0.00    +0.000 C 
ATOM     19  C   UNL     1      62.892  64.517  70.565  0.00  0.00    +0.000 A 
ATOM     20  C   UNL     1      63.357  64.887  71.138  0.00  0.00    +0.000 A 
ATOM     21  F   UNL     1      63.145  64.841  71.934  0.00  0.00    +0.000 F 
ATOM     22  C   UNL     1      64.033  65.303  70.915  0.00  0.00    +0.000 A 
ATOM     23  C   UNL     1      64.245  65.349  70.118  0.00  0.00    +0.000 A 
ATOM     24  C   UNL     1      63.779  64.979  69.546  0.00  0.00    +0.000 A 
ATOM     25  C   UNL     1      63.103  64.563  69.770  0.00  0.00    +0.000 A 
ATOM     26  S   UNL     1      60.473  62.683  68.391  0.00  0.00    +0.000 S 
ENDROOT
TORSDOF 0
ENDMDL
MODEL 6
REMARK VINA RESULT:   -12.089      3.417      4.489
REMARK INTER + INTRA:         -12.089
REMARK INTER:                 -12.089
REMARK INTRA:                   0.000
REMARK UNBOUND:                 0.000
ROOT
REMARK  Name = prasugrel
REMARK                            x       y       z     vdW  Elec       q    Type
REMARK                         _______ _______ _______ _____ _____    ______ ____
ATOM      1  C   UNL     1      66.002  67.404  70.516  0.00  0.00    +0.000 C 
ATOM      2  C   UNL     1      65.409  66.882  70.277  0.00  0.00    +0.000 C 
ATOM      3  O   UNL     1      65.258  66.768  69.474  0.00  0.00    +0.000 OA
ATOM      4  O   UNL     1      64.967  66.472  70.841  0.00  0.00    +0.000 OA
ATOM      5  C   UNL     1      64.375  65.950  70.602  0.00  0.00    +0.000 A 
ATOM      6  C   UNL     1      63.891  65.506  71.100  0.00  0.00    +0.000 A 
ATOM      7  C   UNL     1      63.379  65.062  70.629  0.00  0.00    +0.000 A 
ATOM      8  C   UNL     1      63.547  65.233  69.840  0.00  0.00    +0.000 A 
ATOM      9  C   UNL     1      63.118  64.866  69.238  0.00  0.00    +0.000 C 
ATOM     10  C   UNL     1      62.521  64.329  69.426  0.00  0.00    +0.000 C 
ATOM     11  N   UNL     1      62.353  64.158  70.215  0.00  0.00    +0.000 NA
ATOM     12  C   UNL     1      62.782  64.524  70.817  0.00  0.00    +0.000 C 
ATOM     13  C   UNL     1      61.756  63.621  70.404  0.00  0.00    +0.000 C 
ATOM     14  C   UNL     1      61.327  63.254  69.801  0.00  0.00    +0.000 C 
ATOM     15  O   UNL     1      60.730  62.717  69.990  0.00  0.00    +0.000 OA
ATOM     16  C   UNL     1      61.495  63.425  69.012  0.00  0.00    +0.000 C 
ATOM     17  C   UNL     1      61.936  63.834  68.448  0.00  0.00    +0.000 C 
ATOM     18  C   UNL     1      61.343  63.312  68.209  0.00  0.00    +0.000 C 
ATOM     19  C   UNL     1      61.588  63.450  71.193  0.00  0.00    +0.000 A 
ATOM     20  C   UNL     1      60.991  62.913  71.380  0.00  0.00    +0.000 A 
ATOM     21  F   UNL     1      60.562  62.546  70.779  0.00  0.00    +0.000 F 
ATOM     22  C   UNL     1      60.823  62.742  72.170  0.00  0.00    +0.000 A 
ATOM     23  C   UNL     1      61.252  63.109  72.772  0.00  0.00    +0.000 A 
ATOM     24  C   UNL     1      61.849  63.646  72.584  0.00  0.00    +0.000 A 
ATOM     25  C   UNL     1      62.017  63.817  71.794  0.00  0.00    +0.000 A 
ATOM     26  S   UNL     1      64.162  65.782  69.823  0.00  0.00    +0.000 S 
ENDROOT
TORSDOF 0
ENDMDL
MODEL 7
REMARK VINA RESULT:   -11.740      3.701      5.077
REMARK INTER + INTRA:         -11.740
REMARK INTER:                 -11.740
REMARK INTRA:                   0.000
REMARK UNBOUND:                 0.000
ROOT
REMARK  Name = prasugrel
REMARK                            x       y       z     vdW  Elec       q    Type
REMARK                         _______ _______ _______ _____ _____    ______ ____
ATOM      1  C   UNL     1      65.820  66.943  71.128  0.00  0.00    +0.000 C 
ATOM      2  C   UNL     1      65.046  66.786  71.367  0.00  0.00    +0.000 C 
ATOM      3  O   UNL     1      64.624  67.348  71.798  0.00  0.00    +0.000 OA
ATOM      4  O   UNL     1      64.693  66.064  71.174  0.00  0.00    +0.000 OA
ATOM      5  C   UNL     1      63.919  65.907  71.413  0.00  0.00    +0.000 A 
ATOM      6  C   UNL     1      63.496  65.215  71.263  0.00  0.00    +0.000 A 
ATOM      7  C   UNL     1      62.749  65.294  71.601  0.00  0.00    +0.000 A 
ATOM      8  C   UNL     1      62.709  66.035  71.962  0.00  0.00    +0.000 A 
ATOM      9  C   UNL     1      62.019  66.269  72.349  0.00  0.00    +0.000 C 
ATOM     10  C   UNL     1      61.369  65.762  72.376  0.00  0.00    +0.000 C 
ATOM     11  N   UNL     1      61.409  65.021  72.015  0.00  0.00    +0.000 NA
ATOM     12  C   UNL     1      62.098  64.786  71.628  0.00  0.00    +0.000 C 
ATOM     13  C   UNL     1      60.759  64.514  72.042  0.00  0.00    +0.000 C 
ATOM     14  C   UNL     1      60.069  64.748  72.429  0.00  0.00    +0.000 C 
ATOM     15  O   UNL     1      59.419  64.240  72.456  0.00  0.00    +0.000 OA
ATOM     16  C   UNL     1      60.029  65.489  72.790  0.00  0.00    +0.000 C 
ATOM     17  C   UNL     1      60.381  66.209  72.982  0.00  0.00    +0.000 C 
ATOM     18  C   UNL     1      59.607  66.051  73.221  0.00  0.00    +0.000 C 
ATOM     19  C   UNL     1      60.799  63.772  71.682  0.00  0.00    +0.000 A 
ATOM     20  C   UNL     1      60.148  63.266  71.709  0.00  0.00    +0.000 A 
ATOM     21  F   UNL     1      59.459  63.499  72.096  0.00  0.00    +0.000 F 
ATOM     22  C   UNL     1      60.188  62.525  71.349  0.00  0.00    +0.000 A 
ATOM     23  C   UNL     1      60.878  62.290  70.961  0.00  0.00    +0.000 A 
ATOM     24  C   UNL     1      61.528  62.798  70.934  0.00  0.00    +0.000 A 
ATOM     25  C   UNL     1      61.488  63.539  71.295  0.00  0.00    +0.000 A 
ATOM     26  S   UNL     1      63.432  66.414  71.846  0.00  0.00    +0.000 S 
ENDROOT
TORSDOF 0
ENDMDL
MODEL 8
REMARK VINA RESULT:   -10.007     13.951     15.486
REMARK INTER + INTRA:         -10.007
REMARK INTER:                 -10.007
REMARK INTRA:                   0.000
REMARK UNBOUND:                 0.000
ROOT
REMARK  Name = prasugrel
REMARK                            x       y       z     vdW  Elec       q    Type
REMARK                         _______ _______ _______ _____ _____    ______ ____
ATOM      1  C   UNL     1      61.875  62.738  53.301  0.00  0.00    +0.000 C 
ATOM      2  C   UNL     1      61.987  63.475  53.655  0.00  0.00    +0.000 C 
ATOM      3  O   UNL     1      62.138  63.526  54.464  0.00  0.00    +0.000 OA
ATOM      4  O   UNL     1      61.947  64.162  53.199  0.00  0.00    +0.000 OA
ATOM      5  C   UNL     1      62.058  64.899  53.553  0.00  0.00    +0.000 A 
ATOM      6  C   UNL     1      62.034  65.630  53.170  0.00  0.00    +0.000 A 
ATOM      7  C   UNL     1      62.175  66.216  53.732  0.00  0.00    +0.000 A 
ATOM      8  C   UNL     1      62.285  65.849  54.462  0.00  0.00    +0.000 A 
ATOM      9  C   UNL     1      62.437  66.304  55.134  0.00  0.00    +0.000 C 
ATOM     10  C   UNL     1      62.478  67.125  55.075  0.00  0.00    +0.000 C 
ATOM     11  N   UNL     1      62.368  67.493  54.345  0.00  0.00    +0.000 NA
ATOM     12  C   UNL     1      62.216  67.039  53.673  0.00  0.00    +0.000 C 
ATOM     13  C   UNL     1      62.409  68.314  54.285  0.00  0.00    +0.000 C 
ATOM     14  C   UNL     1      62.561  68.769  54.957  0.00  0.00    +0.000 C 
ATOM     15  O   UNL     1      62.602  69.591  54.898  0.00  0.00    +0.000 OA
ATOM     16  C   UNL     1      62.672  68.402  55.688  0.00  0.00    +0.000 C 
ATOM     17  C   UNL     1      62.712  67.716  56.143  0.00  0.00    +0.000 C 
ATOM     18  C   UNL     1      62.823  68.453  56.497  0.00  0.00    +0.000 C 
ATOM     19  C   UNL     1      62.298  68.682  53.555  0.00  0.00    +0.000 A 
ATOM     20  C   UNL     1      62.340  69.504  53.497  0.00  0.00    +0.000 A 
ATOM     21  F   UNL     1      62.492  69.958  54.167  0.00  0.00    +0.000 F 
ATOM     22  C   UNL     1      62.229  69.871  52.766  0.00  0.00    +0.000 A 
ATOM     23  C   UNL     1      62.077  69.416  52.094  0.00  0.00    +0.000 A 
ATOM     24  C   UNL     1      62.036  68.595  52.154  0.00  0.00    +0.000 A 
ATOM     25  C   UNL     1      62.147  68.227  52.884  0.00  0.00    +0.000 A 
ATOM     26  S   UNL     1      62.213  65.035  54.352  0.00  0.00    +0.000 S 
ENDROOT
TORSDOF 0
ENDMDL
MODEL 9
REMARK VINA RESULT:    -9.992     24.829     25.997
REMARK INTER + INTRA:          -9.992
REMARK INTER:                  -9.992
REMARK INTRA:                   0.000
REMARK UNBOUND:                 0.000
ROOT
REMARK  Name = prasugrel
REMARK                            x       y       z     vdW  Elec       q    Type
REMARK                         _______ _______ _______ _____ _____    ______ ____
ATOM      1  C   UNL     1      72.513  79.267  48.098  0.00  0.00    +0.000 C 
ATOM      2  C   UNL     1      71.891  79.451  48.608  0.00  0.00    +0.000 C 
ATOM      3  O   UNL     1      71.117  79.475  48.324  0.00  0.00    +0.000 OA
ATOM      4  O   UNL     1      72.044  79.610  49.404  0.00  0.00    +0.000 OA
ATOM      5  C   UNL     1      71.422  79.794  49.914  0.00  0.00    +0.000 A 
ATOM      6  C   UNL     1      71.488  79.965  50.718  0.00  0.00    +0.000 A 
ATOM      7  C   UNL     1      70.732  80.115  51.010  0.00  0.00    +0.000 A 
ATOM      8  C   UNL     1      70.198  80.036  50.387  0.00  0.00    +0.000 A 
ATOM      9  C   UNL     1      69.392  80.156  50.518  0.00  0.00    +0.000 C 
ATOM     10  C   UNL     1      69.121  80.354  51.271  0.00  0.00    +0.000 C 
ATOM     11  N   UNL     1      69.655  80.432  51.894  0.00  0.00    +0.000 NA
ATOM     12  C   UNL     1      70.461  80.313  51.765  0.00  0.00    +0.000 C 
ATOM     13  C   UNL     1      69.385  80.630  52.648  0.00  0.00    +0.000 C 
ATOM     14  C   UNL     1      68.578  80.750  52.778  0.00  0.00    +0.000 C 
ATOM     15  O   UNL     1      68.308  80.947  53.532  0.00  0.00    +0.000 OA
ATOM     16  C   UNL     1      68.044  80.672  52.155  0.00  0.00    +0.000 C 
ATOM     17  C   UNL     1      67.891  80.512  51.360  0.00  0.00    +0.000 C 
ATOM     18  C   UNL     1      67.270  80.696  51.871  0.00  0.00    +0.000 C 
ATOM     19  C   UNL     1      69.919  80.708  53.271  0.00  0.00    +0.000 A 
ATOM     20  C   UNL     1      69.648  80.906  54.025  0.00  0.00    +0.000 A 
ATOM     21  F   UNL     1      68.842  81.026  54.155  0.00  0.00    +0.000 F 
ATOM     22  C   UNL     1      70.182  80.984  54.648  0.00  0.00    +0.000 A 
ATOM     23  C   UNL     1      70.989  80.864  54.518  0.00  0.00    +0.000 A 
ATOM     24  C   UNL     1      71.259  80.667  53.764  0.00  0.00    +0.000 A 
ATOM     25  C   UNL     1      70.725  80.588  53.141  0.00  0.00    +0.000 A 
ATOM     26  S   UNL     1      70.623  79.838  49.709  0.00  0.00    +0.000 S 
ENDROOT
TORSDOF 0
ENDMDL
