MODEL 1
REMARK VINA RESULT:   -13.156      0.000      0.000
REMARK INTER + INTRA:         -13.156
REMARK INTER:                 -13.156
REMARK INTRA:                   0.000
REMARK UNBOUND:                 0.000
ROOT
REMARK  Name = pravastatin
REMARK                            x       y       z     vdW  Elec       q    Type
REMARK                         _______ _______ _______ _____ _____    ______ ____
ATOM      1  C   UNL     1      59.270  66.398  73.222  0.00  0.00    +0.000 C 
ATOM      2  C   UNL     1      59.960  66.850  73.191  0.00  0.00    +0.000 C 
ATOM      3  C   UNL     1      60.636  66.546  72.829  0.00  0.00    +0.000 C 
ATOM      4  C   UNL     1      60.622  65.789  72.499  0.00  0.00    +0.000 C 
ATOM      5  C   UNL     1      61.325  66.997  72.797  0.00  0.00    +0.000 C 
ATOM      6  O   UNL     1      61.338  67.753  73.128  0.00  0.00    +0.000 OA
ATOM      7  O   UNL     1      62.002  66.693  72.436  0.00  0.00    +0.000 OA
ATOM      8  C   UNL     1      62.691  67.144  72.404  0.00  0.00    +0.000 C 
ATOM      9  C   UNL     1      62.705  67.900  72.734  0.00  0.00    +0.000 C 
ATOM     10  C   UNL     1      63.394  68.352  72.703  0.00  0.00    +0.000 C 
ATOM     11  O   UNL     1      63.408  69.108  73.033  0.00  0.00    +0.000 OA
ATOM     12  C   UNL     1      64.071  68.048  72.341  0.00  0.00    +0.000 C 
ATOM     13  C   UNL     1      64.057  67.292  72.011  0.00  0.00    +0.000 C 
ATOM     14  C   UNL     1      64.733  66.987  71.649  0.00  0.00    +0.000 C 
ATOM     15  C   UNL     1      64.720  66.231  71.318  0.00  0.00    +0.000 C 
ATOM     16  C   UNL     1      64.030  65.780  71.350  0.00  0.00    +0.000 C 
ATOM     17  C   UNL     1      64.017  65.024  71.020  0.00  0.00    +0.000 C 
ATOM     18  C   UNL     1      63.354  66.084  71.712  0.00  0.00    +0.000 C 
ATOM     19  C   UNL     1      62.665  65.633  71.743  0.00  0.00    +0.000 C 
ATOM     20  C   UNL     1      62.650  64.877  71.413  0.00  0.00    +0.000 C 
ATOM     21  C   UNL     1      61.961  64.425  71.445  0.00  0.00    +0.000 C 
ATOM     22  O   UNL     1      61.284  64.730  71.807  0.00  0.00    +0.000 OA
ATOM     23  C   UNL     1      61.947  63.669  71.114  0.00  0.00    +0.000 C 
ATOM     24  C   UNL     1      61.258  63.218  71.146  0.00  0.00    +0.000 C 
ATOM     25  O   UNL     1      60.581  63.522  71.508  0.00  0.00    +0.000 OA
ATOM     26  C   UNL     1      61.244  62.462  70.816  0.00  0.00    +0.000 C 
ATOM     27  C   UNL     1      60.555  62.010  70.847  0.00  0.00    +0.000 C 
ATOM     28  O   UNL     1      60.540  61.254  70.517  0.00  0.00    +0.000 OA
ATOM     29  O   UNL     1      59.878  62.315  71.209  0.00  0.00    +0.000 OA
ATOM     30  C   UNL     1      63.367  66.839  72.042  0.00  0.00    +0.000 C 
ENDROOT
TORSDOF 0
ENDMDL
MODEL 2
REMARK VINA RESULT:   -13.065      1.699      4.424
REMARK INTER + INTRA:         -13.065
REMARK INTER:                 -13.065
REMARK INTRA:                   0.000
REMARK UNBOUND:                 0.000
ROOT
REMARK  Name = pravastatin
REMARK                            x       y       z     vdW  Elec       q    Type
REMARK                         _______ _______ _______ _____ _____    ______ ____
ATOM      1  C   UNL     1      62.382  68.379  73.222  0.00  0.00    +0.000 C 
ATOM      2  C   UNL     1      61.952  67.676  73.174  0.00  0.00    +0.000 C 
ATOM      3  C   UNL     1      62.204  67.072  72.673  0.00  0.00    +0.000 C 
ATOM      4  C   UNL     1      62.886  67.170  72.219  0.00  0.00    +0.000 C 
ATOM      5  C   UNL     1      61.774  66.370  72.624  0.00  0.00    +0.000 C 
ATOM      6  O   UNL     1      61.092  66.273  73.078  0.00  0.00    +0.000 OA
ATOM      7  O   UNL     1      62.026  65.766  72.123  0.00  0.00    +0.000 OA
ATOM      8  C   UNL     1      61.597  65.064  72.075  0.00  0.00    +0.000 C 
ATOM      9  C   UNL     1      60.914  64.965  72.528  0.00  0.00    +0.000 C 
ATOM     10  C   UNL     1      60.483  64.263  72.480  0.00  0.00    +0.000 C 
ATOM     11  O   UNL     1      59.802  64.165  72.933  0.00  0.00    +0.000 OA
ATOM     12  C   UNL     1      60.736  63.658  71.978  0.00  0.00    +0.000 C 
ATOM     13  C   UNL     1      61.418  63.756  71.525  0.00  0.00    +0.000 C 
ATOM     14  C   UNL     1      61.671  63.152  71.023  0.00  0.00    +0.000 C 
ATOM     15  C   UNL     1      62.353  63.250  70.569  0.00  0.00    +0.000 C 
ATOM     16  C   UNL     1      62.783  63.952  70.618  0.00  0.00    +0.000 C 
ATOM     17  C   UNL     1      63.465  64.050  70.164  0.00  0.00    +0.000 C 
ATOM     18  C   UNL     1      62.531  64.557  71.119  0.00  0.00    +0.000 C 
ATOM     19  C   UNL     1      62.960  65.258  71.167  0.00  0.00    +0.000 C 
ATOM     20  C   UNL     1      63.643  65.357  70.714  0.00  0.00    +0.000 C 
ATOM     21  C   UNL     1      64.073  66.059  70.762  0.00  0.00    +0.000 C 
ATOM     22  O   UNL     1      63.820  66.664  71.264  0.00  0.00    +0.000 OA
ATOM     23  C   UNL     1      64.755  66.157  70.309  0.00  0.00    +0.000 C 
ATOM     24  C   UNL     1      65.185  66.859  70.357  0.00  0.00    +0.000 C 
ATOM     25  O   UNL     1      64.933  67.464  70.859  0.00  0.00    +0.000 OA
ATOM     26  C   UNL     1      65.867  66.958  69.904  0.00  0.00    +0.000 C 
ATOM     27  C   UNL     1      66.297  67.660  69.952  0.00  0.00    +0.000 C 
ATOM     28  O   UNL     1      66.980  67.758  69.498  0.00  0.00    +0.000 OA
ATOM     29  O   UNL     1      66.045  68.265  70.454  0.00  0.00    +0.000 OA
ATOM     30  C   UNL     1      61.849  64.459  71.572  0.00  0.00    +0.000 C 
ENDROOT
TORSDOF 0
ENDMDL
MODEL 3
REMARK VINA RESULT:   -13.024      2.685      4.084
REMARK INTER + INTRA:         -13.024
REMARK INTER:                 -13.024
REMARK INTRA:                   0.000
REMARK UNBOUND:                 0.000
ROOT
REMARK  Name = pravastatin
REMARK                            x       y       z     vdW  Elec       q    Type
REMARK                         _______ _______ _______ _____ _____    ______ ____
ATOM      1  C   UNL     1      59.447  66.514  68.731  0.00  0.00    +0.000 C 
ATOM      2  C   UNL     1      59.747  66.340  69.480  0.00  0.00    +0.000 C 
ATOM      3  C   UNL     1      59.976  65.570  69.664  0.00  0.00    +0.000 C 
ATOM      4  C   UNL     1      59.905  64.972  69.099  0.00  0.00    +0.000 C 
ATOM      5  C   UNL     1      60.276  65.396  70.412  0.00  0.00    +0.000 C 
ATOM      6  O   UNL     1      60.347  65.994  70.976  0.00  0.00    +0.000 OA
ATOM      7  O   UNL     1      60.505  64.625  70.596  0.00  0.00    +0.000 OA
ATOM      8  C   UNL     1      60.805  64.452  71.344  0.00  0.00    +0.000 C 
ATOM      9  C   UNL     1      60.877  65.050  71.909  0.00  0.00    +0.000 C 
ATOM     10  C   UNL     1      61.177  64.877  72.658  0.00  0.00    +0.000 C 
ATOM     11  O   UNL     1      61.248  65.474  73.223  0.00  0.00    +0.000 OA
ATOM     12  C   UNL     1      61.406  64.105  72.843  0.00  0.00    +0.000 C 
ATOM     13  C   UNL     1      61.334  63.508  72.278  0.00  0.00    +0.000 C 
ATOM     14  C   UNL     1      61.563  62.737  72.462  0.00  0.00    +0.000 C 
ATOM     15  C   UNL     1      61.492  62.139  71.898  0.00  0.00    +0.000 C 
ATOM     16  C   UNL     1      61.192  62.313  71.149  0.00  0.00    +0.000 C 
ATOM     17  C   UNL     1      61.121  61.715  70.585  0.00  0.00    +0.000 C 
ATOM     18  C   UNL     1      60.963  63.084  70.965  0.00  0.00    +0.000 C 
ATOM     19  C   UNL     1      60.663  63.257  70.217  0.00  0.00    +0.000 C 
ATOM     20  C   UNL     1      60.591  62.659  69.652  0.00  0.00    +0.000 C 
ATOM     21  C   UNL     1      60.291  62.832  68.904  0.00  0.00    +0.000 C 
ATOM     22  O   UNL     1      60.062  63.604  68.719  0.00  0.00    +0.000 OA
ATOM     23  C   UNL     1      60.220  62.235  68.339  0.00  0.00    +0.000 C 
ATOM     24  C   UNL     1      59.920  62.408  67.591  0.00  0.00    +0.000 C 
ATOM     25  O   UNL     1      59.691  63.180  67.406  0.00  0.00    +0.000 OA
ATOM     26  C   UNL     1      59.848  61.811  67.026  0.00  0.00    +0.000 C 
ATOM     27  C   UNL     1      59.548  61.984  66.278  0.00  0.00    +0.000 C 
ATOM     28  O   UNL     1      59.477  61.387  65.713  0.00  0.00    +0.000 OA
ATOM     29  O   UNL     1      59.319  62.756  66.093  0.00  0.00    +0.000 OA
ATOM     30  C   UNL     1      61.034  63.681  71.529  0.00  0.00    +0.000 C 
ENDROOT
TORSDOF 0
ENDMDL
MODEL 4
REMARK VINA RESULT:   -12.865      2.322      4.032
REMARK INTER + INTRA:         -12.865
REMARK INTER:                 -12.865
REMARK INTRA:                   0.000
REMARK UNBOUND:                 0.000
ROOT
REMARK  Name = pravastatin
REMARK                            x       y       z     vdW  Elec       q    Type
REMARK                         _______ _______ _______ _____ _____    ______ ____
ATOM      1  C   UNL     1      64.628  65.143  68.922  0.00  0.00    +0.000 C 
ATOM      2  C   UNL     1      64.253  65.306  69.640  0.00  0.00    +0.000 C 
ATOM      3  C   UNL     1      63.506  64.995  69.795  0.00  0.00    +0.000 C 
ATOM      4  C   UNL     1      63.132  64.519  69.233  0.00  0.00    +0.000 C 
ATOM      5  C   UNL     1      63.131  65.158  70.511  0.00  0.00    +0.000 C 
ATOM      6  O   UNL     1      63.505  65.633  71.072  0.00  0.00    +0.000 OA
ATOM      7  O   UNL     1      62.383  64.846  70.666  0.00  0.00    +0.000 OA
ATOM      8  C   UNL     1      62.009  65.010  71.382  0.00  0.00    +0.000 C 
ATOM      9  C   UNL     1      62.382  65.485  71.944  0.00  0.00    +0.000 C 
ATOM     10  C   UNL     1      62.008  65.649  72.661  0.00  0.00    +0.000 C 
ATOM     11  O   UNL     1      62.381  66.124  73.222  0.00  0.00    +0.000 OA
ATOM     12  C   UNL     1      61.259  65.337  72.816  0.00  0.00    +0.000 C 
ATOM     13  C   UNL     1      60.886  64.862  72.254  0.00  0.00    +0.000 C 
ATOM     14  C   UNL     1      60.138  64.550  72.409  0.00  0.00    +0.000 C 
ATOM     15  C   UNL     1      59.764  64.075  71.847  0.00  0.00    +0.000 C 
ATOM     16  C   UNL     1      60.139  63.911  71.131  0.00  0.00    +0.000 C 
ATOM     17  C   UNL     1      59.765  63.436  70.570  0.00  0.00    +0.000 C 
ATOM     18  C   UNL     1      60.887  64.223  70.976  0.00  0.00    +0.000 C 
ATOM     19  C   UNL     1      61.261  64.060  70.260  0.00  0.00    +0.000 C 
ATOM     20  C   UNL     1      60.888  63.584  69.698  0.00  0.00    +0.000 C 
ATOM     21  C   UNL     1      61.262  63.421  68.982  0.00  0.00    +0.000 C 
ATOM     22  O   UNL     1      62.011  63.733  68.826  0.00  0.00    +0.000 OA
ATOM     23  C   UNL     1      60.889  62.946  68.419  0.00  0.00    +0.000 C 
ATOM     24  C   UNL     1      61.264  62.782  67.703  0.00  0.00    +0.000 C 
ATOM     25  O   UNL     1      62.012  63.094  67.548  0.00  0.00    +0.000 OA
ATOM     26  C   UNL     1      60.891  62.307  67.141  0.00  0.00    +0.000 C 
ATOM     27  C   UNL     1      61.265  62.143  66.425  0.00  0.00    +0.000 C 
ATOM     28  O   UNL     1      60.892  61.668  65.863  0.00  0.00    +0.000 OA
ATOM     29  O   UNL     1      62.014  62.455  66.270  0.00  0.00    +0.000 OA
ATOM     30  C   UNL     1      61.260  64.698  71.537  0.00  0.00    +0.000 C 
ENDROOT
TORSDOF 0
ENDMDL
MODEL 5
REMARK VINA RESULT:   -12.748      1.496      3.246
REMARK INTER + INTRA:         -12.748
REMARK INTER:                 -12.748
REMARK INTRA:                   0.000
REMARK UNBOUND:                 0.000
ROOT
REMARK  Name = pravastatin
REMARK                            x       y       z     vdW  Elec       q    Type
REMARK                         _______ _______ _______ _____ _____    ______ ____
ATOM      1  C   UNL     1      61.807  63.116  70.650  0.00  0.00    +0.000 C 
ATOM      2  C   UNL     1      62.438  63.642  70.728  0.00  0.00    +0.000 C 
ATOM      3  C   UNL     1      62.327  64.365  71.108  0.00  0.00    +0.000 C 
ATOM      4  C   UNL     1      61.585  64.563  71.410  0.00  0.00    +0.000 C 
ATOM      5  C   UNL     1      62.957  64.891  71.186  0.00  0.00    +0.000 C 
ATOM      6  O   UNL     1      63.699  64.693  70.884  0.00  0.00    +0.000 OA
ATOM      7  O   UNL     1      62.846  65.615  71.566  0.00  0.00    +0.000 OA
ATOM      8  C   UNL     1      63.477  66.141  71.644  0.00  0.00    +0.000 C 
ATOM      9  C   UNL     1      64.219  65.943  71.342  0.00  0.00    +0.000 C 
ATOM     10  C   UNL     1      64.850  66.469  71.420  0.00  0.00    +0.000 C 
ATOM     11  O   UNL     1      65.591  66.272  71.118  0.00  0.00    +0.000 OA
ATOM     12  C   UNL     1      64.739  67.194  71.800  0.00  0.00    +0.000 C 
ATOM     13  C   UNL     1      63.997  67.391  72.102  0.00  0.00    +0.000 C 
ATOM     14  C   UNL     1      63.886  68.115  72.482  0.00  0.00    +0.000 C 
ATOM     15  C   UNL     1      63.143  68.313  72.784  0.00  0.00    +0.000 C 
ATOM     16  C   UNL     1      62.513  67.787  72.706  0.00  0.00    +0.000 C 
ATOM     17  C   UNL     1      61.771  67.985  73.008  0.00  0.00    +0.000 C 
ATOM     18  C   UNL     1      62.624  67.063  72.326  0.00  0.00    +0.000 C 
ATOM     19  C   UNL     1      61.994  66.537  72.248  0.00  0.00    +0.000 C 
ATOM     20  C   UNL     1      61.251  66.735  72.550  0.00  0.00    +0.000 C 
ATOM     21  C   UNL     1      60.621  66.209  72.472  0.00  0.00    +0.000 C 
ATOM     22  O   UNL     1      60.732  65.485  72.091  0.00  0.00    +0.000 OA
ATOM     23  C   UNL     1      59.879  66.407  72.774  0.00  0.00    +0.000 C 
ATOM     24  C   UNL     1      59.248  65.881  72.696  0.00  0.00    +0.000 C 
ATOM     25  O   UNL     1      59.360  65.156  72.315  0.00  0.00    +0.000 OA
ATOM     26  C   UNL     1      58.506  66.078  72.998  0.00  0.00    +0.000 C 
ATOM     27  C   UNL     1      57.876  65.553  72.920  0.00  0.00    +0.000 C 
ATOM     28  O   UNL     1      57.133  65.750  73.222  0.00  0.00    +0.000 OA
ATOM     29  O   UNL     1      57.987  64.828  72.539  0.00  0.00    +0.000 OA
ATOM     30  C   UNL     1      63.365  66.865  72.024  0.00  0.00    +0.000 C 
ENDROOT
TORSDOF 0
ENDMDL
MODEL 6
REMARK VINA RESULT:   -12.658      1.904      2.298
REMARK INTER + INTRA:         -12.658
REMARK INTER:                 -12.658
REMARK INTRA:                   0.000
REMARK UNBOUND:                 0.000
ROOT
REMARK  Name = pravastatin
REMARK                            x       y       z     vdW  Elec       q    Type
REMARK                         _______ _______ _______ _____ _____    ______ ____
ATOM      1  C   UNL     1      59.383  64.081  71.932  0.00  0.00    +0.000 C 
ATOM      2  C   UNL     1      60.010  64.572  72.147  0.00  0.00    +0.000 C 
ATOM      3  C   UNL     1      60.653  64.666  71.640  0.00  0.00    +0.000 C 
ATOM      4  C   UNL     1      60.670  64.268  70.917  0.00  0.00    +0.000 C 
ATOM      5  C   UNL     1      61.280  65.157  71.855  0.00  0.00    +0.000 C 
ATOM      6  O   UNL     1      61.263  65.554  72.577  0.00  0.00    +0.000 OA
ATOM      7  O   UNL     1      61.923  65.251  71.347  0.00  0.00    +0.000 OA
ATOM      8  C   UNL     1      62.549  65.742  71.562  0.00  0.00    +0.000 C 
ATOM      9  C   UNL     1      62.533  66.140  72.285  0.00  0.00    +0.000 C 
ATOM     10  C   UNL     1      63.160  66.632  72.500  0.00  0.00    +0.000 C 
ATOM     11  O   UNL     1      63.144  67.029  73.222  0.00  0.00    +0.000 OA
ATOM     12  C   UNL     1      63.804  66.726  71.992  0.00  0.00    +0.000 C 
ATOM     13  C   UNL     1      63.820  66.328  71.269  0.00  0.00    +0.000 C 
ATOM     14  C   UNL     1      64.464  66.422  70.761  0.00  0.00    +0.000 C 
ATOM     15  C   UNL     1      64.481  66.024  70.038  0.00  0.00    +0.000 C 
ATOM     16  C   UNL     1      63.853  65.533  69.824  0.00  0.00    +0.000 C 
ATOM     17  C   UNL     1      63.871  65.136  69.101  0.00  0.00    +0.000 C 
ATOM     18  C   UNL     1      63.210  65.439  70.331  0.00  0.00    +0.000 C 
ATOM     19  C   UNL     1      62.584  64.948  70.116  0.00  0.00    +0.000 C 
ATOM     20  C   UNL     1      62.600  64.550  69.394  0.00  0.00    +0.000 C 
ATOM     21  C   UNL     1      61.974  64.059  69.179  0.00  0.00    +0.000 C 
ATOM     22  O   UNL     1      61.329  63.965  69.687  0.00  0.00    +0.000 OA
ATOM     23  C   UNL     1      61.990  63.661  68.456  0.00  0.00    +0.000 C 
ATOM     24  C   UNL     1      61.363  63.170  68.241  0.00  0.00    +0.000 C 
ATOM     25  O   UNL     1      60.719  63.076  68.749  0.00  0.00    +0.000 OA
ATOM     26  C   UNL     1      61.379  62.773  67.518  0.00  0.00    +0.000 C 
ATOM     27  C   UNL     1      60.753  62.282  67.303  0.00  0.00    +0.000 C 
ATOM     28  O   UNL     1      60.769  61.884  66.580  0.00  0.00    +0.000 OA
ATOM     29  O   UNL     1      60.109  62.187  67.811  0.00  0.00    +0.000 OA
ATOM     30  C   UNL     1      63.194  65.836  71.054  0.00  0.00    +0.000 C 
ENDROOT
TORSDOF 0
ENDMDL
MODEL 7
REMARK VINA RESULT:   -12.430      1.573      5.130
REMARK INTER + INTRA:         -12.430
REMARK INTER:                 -12.430
REMARK INTRA:                   0.000
REMARK UNBOUND:                 0.000
ROOT
REMARK  Name = pravastatin
REMARK                            x       y       z     vdW  Elec       q    Type
REMARK                         _______ _______ _______ _____ _____    ______ ____
ATOM      1  C   UNL     1      60.187  66.077  68.537  0.00  0.00    +0.000 C 
ATOM      2  C   UNL     1      60.172  65.270  68.712  0.00  0.00    +0.000 C 
ATOM      3  C   UNL     1      60.476  64.998  69.428  0.00  0.00    +0.000 C 
ATOM      4  C   UNL     1      60.795  65.532  69.971  0.00  0.00    +0.000 C 
ATOM      5  C   UNL     1      60.461  64.192  69.604  0.00  0.00    +0.000 C 
ATOM      6  O   UNL     1      60.142  63.659  69.062  0.00  0.00    +0.000 OA
ATOM      7  O   UNL     1      60.765  63.920  70.321  0.00  0.00    +0.000 OA
ATOM      8  C   UNL     1      60.750  63.115  70.495  0.00  0.00    +0.000 C 
ATOM      9  C   UNL     1      60.431  62.580  69.954  0.00  0.00    +0.000 C 
ATOM     10  C   UNL     1      60.416  61.774  70.128  0.00  0.00    +0.000 C 
ATOM     11  O   UNL     1      60.097  61.240  69.587  0.00  0.00    +0.000 OA
ATOM     12  C   UNL     1      60.720  61.501  70.846  0.00  0.00    +0.000 C 
ATOM     13  C   UNL     1      61.040  62.036  71.388  0.00  0.00    +0.000 C 
ATOM     14  C   UNL     1      61.344  61.764  72.105  0.00  0.00    +0.000 C 
ATOM     15  C   UNL     1      61.663  62.298  72.647  0.00  0.00    +0.000 C 
ATOM     16  C   UNL     1      61.678  63.104  72.472  0.00  0.00    +0.000 C 
ATOM     17  C   UNL     1      61.997  63.637  73.014  0.00  0.00    +0.000 C 
ATOM     18  C   UNL     1      61.374  63.376  71.755  0.00  0.00    +0.000 C 
ATOM     19  C   UNL     1      61.389  64.181  71.580  0.00  0.00    +0.000 C 
ATOM     20  C   UNL     1      61.708  64.716  72.122  0.00  0.00    +0.000 C 
ATOM     21  C   UNL     1      61.723  65.521  71.947  0.00  0.00    +0.000 C 
ATOM     22  O   UNL     1      61.418  65.794  71.229  0.00  0.00    +0.000 OA
ATOM     23  C   UNL     1      62.042  66.056  72.489  0.00  0.00    +0.000 C 
ATOM     24  C   UNL     1      62.057  66.861  72.314  0.00  0.00    +0.000 C 
ATOM     25  O   UNL     1      61.752  67.134  71.596  0.00  0.00    +0.000 OA
ATOM     26  C   UNL     1      62.376  67.396  72.856  0.00  0.00    +0.000 C 
ATOM     27  C   UNL     1      62.391  68.202  72.681  0.00  0.00    +0.000 C 
ATOM     28  O   UNL     1      62.710  68.736  73.222  0.00  0.00    +0.000 OA
ATOM     29  O   UNL     1      62.086  68.474  71.963  0.00  0.00    +0.000 OA
ATOM     30  C   UNL     1      61.055  62.842  71.213  0.00  0.00    +0.000 C 
ENDROOT
TORSDOF 0
ENDMDL
MODEL 8
REMARK VINA RESULT:   -12.321      0.962      2.742
REMARK INTER + INTRA:         -12.321
REMARK INTER:                 -12.321
REMARK INTRA:                   0.000
REMARK UNBOUND:                 0.000
ROOT
REMARK  Name = pravastatin
REMARK                            x       y       z     vdW  Elec       q    Type
REMARK                         _______ _______ _______ _____ _____    ______ ____
ATOM      1  C   UNL     1      64.790  64.688  70.143  0.00  0.00    +0.000 C 
ATOM      2  C   UNL     1      64.585  65.365  70.567  0.00  0.00    +0.000 C 
ATOM      3  C   UNL     1      63.838  65.425  70.912  0.00  0.00    +0.000 C 
ATOM      4  C   UNL     1      63.296  64.807  70.832  0.00  0.00    +0.000 C 
ATOM      5  C   UNL     1      63.632  66.101  71.336  0.00  0.00    +0.000 C 
ATOM      6  O   UNL     1      64.174  66.718  71.415  0.00  0.00    +0.000 OA
ATOM      7  O   UNL     1      62.885  66.161  71.681  0.00  0.00    +0.000 OA
ATOM      8  C   UNL     1      62.680  66.838  72.105  0.00  0.00    +0.000 C 
ATOM      9  C   UNL     1      63.221  67.455  72.185  0.00  0.00    +0.000 C 
ATOM     10  C   UNL     1      63.016  68.133  72.609  0.00  0.00    +0.000 C 
ATOM     11  O   UNL     1      63.557  68.750  72.689  0.00  0.00    +0.000 OA
ATOM     12  C   UNL     1      62.268  68.193  72.955  0.00  0.00    +0.000 C 
ATOM     13  C   UNL     1      61.727  67.575  72.875  0.00  0.00    +0.000 C 
ATOM     14  C   UNL     1      60.980  67.634  73.219  0.00  0.00    +0.000 C 
ATOM     15  C   UNL     1      60.438  67.017  73.140  0.00  0.00    +0.000 C 
ATOM     16  C   UNL     1      60.644  66.340  72.715  0.00  0.00    +0.000 C 
ATOM     17  C   UNL     1      60.102  65.723  72.636  0.00  0.00    +0.000 C 
ATOM     18  C   UNL     1      61.391  66.280  72.371  0.00  0.00    +0.000 C 
ATOM     19  C   UNL     1      61.596  65.604  71.947  0.00  0.00    +0.000 C 
ATOM     20  C   UNL     1      61.055  64.986  71.866  0.00  0.00    +0.000 C 
ATOM     21  C   UNL     1      61.260  64.310  71.442  0.00  0.00    +0.000 C 
ATOM     22  O   UNL     1      62.008  64.250  71.097  0.00  0.00    +0.000 OA
ATOM     23  C   UNL     1      60.719  63.692  71.362  0.00  0.00    +0.000 C 
ATOM     24  C   UNL     1      60.924  63.016  70.938  0.00  0.00    +0.000 C 
ATOM     25  O   UNL     1      61.672  62.956  70.593  0.00  0.00    +0.000 OA
ATOM     26  C   UNL     1      60.383  62.398  70.858  0.00  0.00    +0.000 C 
ATOM     27  C   UNL     1      60.588  61.721  70.434  0.00  0.00    +0.000 C 
ATOM     28  O   UNL     1      60.047  61.104  70.354  0.00  0.00    +0.000 OA
ATOM     29  O   UNL     1      61.336  61.662  70.089  0.00  0.00    +0.000 OA
ATOM     30  C   UNL     1      61.932  66.897  72.450  0.00  0.00    +0.000 C 
ENDROOT
TORSDOF 0
ENDMDL
MODEL 9
REMARK VINA RESULT:   -11.960      2.568      4.116
REMARK INTER + INTRA:         -11.960
REMARK INTER:                 -11.960
REMARK INTRA:                   0.000
REMARK UNBOUND:                 0.000
ROOT
REMARK  Name = pravastatin
REMARK                            x       y       z     vdW  Elec       q    Type
REMARK                         _______ _______ _______ _____ _____    ______ ____
ATOM      1  C   UNL     1      60.410  61.114  70.959  0.00  0.00    +0.000 C 
ATOM      2  C   UNL     1      60.368  61.852  71.327  0.00  0.00    +0.000 C 
ATOM      3  C   UNL     1      60.519  62.537  70.895  0.00  0.00    +0.000 C 
ATOM      4  C   UNL     1      60.713  62.486  70.094  0.00  0.00    +0.000 C 
ATOM      5  C   UNL     1      60.477  63.275  71.262  0.00  0.00    +0.000 C 
ATOM      6  O   UNL     1      60.283  63.325  72.062  0.00  0.00    +0.000 OA
ATOM      7  O   UNL     1      60.628  63.961  70.830  0.00  0.00    +0.000 OA
ATOM      8  C   UNL     1      60.585  64.697  71.197  0.00  0.00    +0.000 C 
ATOM      9  C   UNL     1      60.392  64.749  71.998  0.00  0.00    +0.000 C 
ATOM     10  C   UNL     1      60.349  65.486  72.366  0.00  0.00    +0.000 C 
ATOM     11  O   UNL     1      60.155  65.538  73.166  0.00  0.00    +0.000 OA
ATOM     12  C   UNL     1      60.500  66.173  71.933  0.00  0.00    +0.000 C 
ATOM     13  C   UNL     1      60.694  66.121  71.133  0.00  0.00    +0.000 C 
ATOM     14  C   UNL     1      60.845  66.807  70.700  0.00  0.00    +0.000 C 
ATOM     15  C   UNL     1      61.039  66.756  69.899  0.00  0.00    +0.000 C 
ATOM     16  C   UNL     1      61.081  66.019  69.532  0.00  0.00    +0.000 C 
ATOM     17  C   UNL     1      61.275  65.968  68.732  0.00  0.00    +0.000 C 
ATOM     18  C   UNL     1      60.930  65.333  69.965  0.00  0.00    +0.000 C 
ATOM     19  C   UNL     1      60.972  64.596  69.597  0.00  0.00    +0.000 C 
ATOM     20  C   UNL     1      61.166  64.544  68.796  0.00  0.00    +0.000 C 
ATOM     21  C   UNL     1      61.209  63.808  68.429  0.00  0.00    +0.000 C 
ATOM     22  O   UNL     1      61.057  63.121  68.862  0.00  0.00    +0.000 OA
ATOM     23  C   UNL     1      61.402  63.756  67.628  0.00  0.00    +0.000 C 
ATOM     24  C   UNL     1      61.445  63.019  67.261  0.00  0.00    +0.000 C 
ATOM     25  O   UNL     1      61.293  62.332  67.694  0.00  0.00    +0.000 OA
ATOM     26  C   UNL     1      61.638  62.967  66.460  0.00  0.00    +0.000 C 
ATOM     27  C   UNL     1      61.681  62.231  66.093  0.00  0.00    +0.000 C 
ATOM     28  O   UNL     1      61.874  62.179  65.292  0.00  0.00    +0.000 OA
ATOM     29  O   UNL     1      61.529  61.544  66.526  0.00  0.00    +0.000 OA
ATOM     30  C   UNL     1      60.736  65.384  70.764  0.00  0.00    +0.000 C 
ENDROOT
TORSDOF 0
ENDMDL
