MODEL 1
REMARK VINA RESULT:   -15.688      0.000      0.000
REMARK INTER + INTRA:         -15.688
REMARK INTER:                 -15.688
REMARK INTRA:                   0.000
REMARK UNBOUND:                 0.000
ROOT
REMARK  Name = prednisolone succinate
REMARK                            x       y       z     vdW  Elec       q    Type
REMARK                         _______ _______ _______ _____ _____    ______ ____
ATOM      1  C   UNL     1      60.924  62.457  69.697  0.00  0.00    +0.000 C 
ATOM      2  C   UNL     1      61.155  62.863  70.377  0.00  0.00    +0.000 C 
ATOM      3  C   UNL     1      61.510  63.138  69.687  0.00  0.00    +0.000 C 
ATOM      4  C   UNL     1      62.045  63.766  69.719  0.00  0.00    +0.000 C 
ATOM      5  O   UNL     1      62.400  64.041  69.028  0.00  0.00    +0.000 OA
ATOM      6  C   UNL     1      62.223  64.119  70.443  0.00  0.00    +0.000 C 
ATOM      7  C   UNL     1      61.867  63.843  71.134  0.00  0.00    +0.000 C 
ATOM      8  C   UNL     1      62.046  64.196  71.859  0.00  0.00    +0.000 C 
ATOM      9  C   UNL     1      62.579  64.824  71.891  0.00  0.00    +0.000 C 
ATOM     10  C   UNL     1      62.935  65.099  71.199  0.00  0.00    +0.000 C 
ATOM     11  C   UNL     1      63.469  65.727  71.232  0.00  0.00    +0.000 C 
ATOM     12  C   UNL     1      63.824  66.003  70.540  0.00  0.00    +0.000 C 
ATOM     13  O   UNL     1      64.359  66.631  70.573  0.00  0.00    +0.000 OA
ATOM     14  C   UNL     1      63.647  65.650  69.816  0.00  0.00    +0.000 C 
ATOM     15  C   UNL     1      63.112  65.022  69.783  0.00  0.00    +0.000 C 
ATOM     16  C   UNL     1      62.757  64.747  70.475  0.00  0.00    +0.000 C 
ATOM     17  C   UNL     1      62.578  64.394  69.751  0.00  0.00    +0.000 C 
ATOM     18  C   UNL     1      61.333  63.215  71.102  0.00  0.00    +0.000 C 
ATOM     19  C   UNL     1      60.900  62.828  71.688  0.00  0.00    +0.000 C 
ATOM     20  C   UNL     1      60.453  62.236  71.326  0.00  0.00    +0.000 C 
ATOM     21  C   UNL     1      60.611  62.257  70.516  0.00  0.00    +0.000 C 
ATOM     22  O   UNL     1      60.113  61.635  70.306  0.00  0.00    +0.000 OA
ATOM     23  C   UNL     1      60.538  62.015  69.731  0.00  0.00    +0.000 C 
ATOM     24  O   UNL     1      60.035  61.390  69.538  0.00  0.00    +0.000 OA
ATOM     25  C   UNL     1      60.968  62.396  69.139  0.00  0.00    +0.000 C 
ATOM     26  O   UNL     1      60.894  62.154  68.354  0.00  0.00    +0.000 OA
ATOM     27  C   UNL     1      61.324  62.535  67.762  0.00  0.00    +0.000 C 
ATOM     28  O   UNL     1      61.828  63.161  67.956  0.00  0.00    +0.000 OA
ATOM     29  C   UNL     1      61.251  62.293  66.978  0.00  0.00    +0.000 C 
ATOM     30  C   UNL     1      61.681  62.675  66.385  0.00  0.00    +0.000 C 
ATOM     31  C   UNL     1      61.608  62.432  65.601  0.00  0.00    +0.000 C 
ATOM     32  O   UNL     1      62.037  62.814  65.009  0.00  0.00    +0.000 OA
ATOM     33  O   UNL     1      61.104  61.808  65.407  0.00  0.00    +0.000 OA
ENDROOT
TORSDOF 0
ENDMDL
MODEL 2
REMARK VINA RESULT:   -15.580      1.184      4.164
REMARK INTER + INTRA:         -15.580
REMARK INTER:                 -15.580
REMARK INTRA:                   0.000
REMARK UNBOUND:                 0.000
ROOT
REMARK  Name = prednisolone succinate
REMARK                            x       y       z     vdW  Elec       q    Type
REMARK                         _______ _______ _______ _____ _____    ______ ____
ATOM      1  C   UNL     1      62.014  63.844  71.313  0.00  0.00    +0.000 C 
ATOM      2  C   UNL     1      61.497  63.303  70.965  0.00  0.00    +0.000 C 
ATOM      3  C   UNL     1      61.957  63.722  70.424  0.00  0.00    +0.000 C 
ATOM      4  C   UNL     1      61.875  63.580  69.615  0.00  0.00    +0.000 C 
ATOM      5  O   UNL     1      62.336  63.999  69.074  0.00  0.00    +0.000 OA
ATOM      6  C   UNL     1      61.333  63.020  69.348  0.00  0.00    +0.000 C 
ATOM      7  C   UNL     1      60.872  62.601  69.889  0.00  0.00    +0.000 C 
ATOM      8  C   UNL     1      60.329  62.040  69.621  0.00  0.00    +0.000 C 
ATOM      9  C   UNL     1      60.247  61.899  68.813  0.00  0.00    +0.000 C 
ATOM     10  C   UNL     1      60.708  62.318  68.272  0.00  0.00    +0.000 C 
ATOM     11  C   UNL     1      60.626  62.176  67.463  0.00  0.00    +0.000 C 
ATOM     12  C   UNL     1      61.087  62.595  66.922  0.00  0.00    +0.000 C 
ATOM     13  O   UNL     1      61.004  62.454  66.113  0.00  0.00    +0.000 OA
ATOM     14  C   UNL     1      61.629  63.156  67.189  0.00  0.00    +0.000 C 
ATOM     15  C   UNL     1      61.711  63.298  67.998  0.00  0.00    +0.000 C 
ATOM     16  C   UNL     1      61.251  62.878  68.539  0.00  0.00    +0.000 C 
ATOM     17  C   UNL     1      61.794  63.439  68.807  0.00  0.00    +0.000 C 
ATOM     18  C   UNL     1      60.954  62.743  70.698  0.00  0.00    +0.000 C 
ATOM     19  C   UNL     1      60.578  62.416  71.356  0.00  0.00    +0.000 C 
ATOM     20  C   UNL     1      60.889  62.776  72.031  0.00  0.00    +0.000 C 
ATOM     21  C   UNL     1      61.457  63.324  71.789  0.00  0.00    +0.000 C 
ATOM     22  O   UNL     1      61.663  63.585  72.543  0.00  0.00    +0.000 OA
ATOM     23  C   UNL     1      62.032  63.905  71.897  0.00  0.00    +0.000 C 
ATOM     24  O   UNL     1      62.227  64.156  72.659  0.00  0.00    +0.000 OA
ATOM     25  C   UNL     1      62.412  64.236  71.244  0.00  0.00    +0.000 C 
ATOM     26  O   UNL     1      62.987  64.817  71.352  0.00  0.00    +0.000 OA
ATOM     27  C   UNL     1      63.368  65.148  70.700  0.00  0.00    +0.000 C 
ATOM     28  O   UNL     1      63.173  64.897  69.937  0.00  0.00    +0.000 OA
ATOM     29  C   UNL     1      63.943  65.729  70.808  0.00  0.00    +0.000 C 
ATOM     30  C   UNL     1      64.324  66.060  70.155  0.00  0.00    +0.000 C 
ATOM     31  C   UNL     1      64.899  66.641  70.263  0.00  0.00    +0.000 C 
ATOM     32  O   UNL     1      65.280  66.972  69.610  0.00  0.00    +0.000 OA
ATOM     33  O   UNL     1      65.094  66.892  71.024  0.00  0.00    +0.000 OA
ENDROOT
TORSDOF 0
ENDMDL
MODEL 3
REMARK VINA RESULT:   -15.399      2.137      2.637
REMARK INTER + INTRA:         -15.399
REMARK INTER:                 -15.399
REMARK INTRA:                   0.000
REMARK UNBOUND:                 0.000
ROOT
REMARK  Name = prednisolone succinate
REMARK                            x       y       z     vdW  Elec       q    Type
REMARK                         _______ _______ _______ _____ _____    ______ ____
ATOM      1  C   UNL     1      61.084  62.553  71.099  0.00  0.00    +0.000 C 
ATOM      2  C   UNL     1      61.026  63.068  71.741  0.00  0.00    +0.000 C 
ATOM      3  C   UNL     1      60.692  63.360  71.047  0.00  0.00    +0.000 C 
ATOM      4  C   UNL     1      60.341  64.107  71.040  0.00  0.00    +0.000 C 
ATOM      5  O   UNL     1      60.008  64.399  70.344  0.00  0.00    +0.000 OA
ATOM      6  C   UNL     1      60.325  64.561  71.727  0.00  0.00    +0.000 C 
ATOM      7  C   UNL     1      60.658  64.268  72.423  0.00  0.00    +0.000 C 
ATOM      8  C   UNL     1      60.642  64.723  73.112  0.00  0.00    +0.000 C 
ATOM      9  C   UNL     1      60.291  65.469  73.105  0.00  0.00    +0.000 C 
ATOM     10  C   UNL     1      59.957  65.761  72.409  0.00  0.00    +0.000 C 
ATOM     11  C   UNL     1      59.606  66.508  72.402  0.00  0.00    +0.000 C 
ATOM     12  C   UNL     1      59.272  66.801  71.707  0.00  0.00    +0.000 C 
ATOM     13  O   UNL     1      58.922  67.548  71.700  0.00  0.00    +0.000 OA
ATOM     14  C   UNL     1      59.289  66.347  71.018  0.00  0.00    +0.000 C 
ATOM     15  C   UNL     1      59.640  65.600  71.025  0.00  0.00    +0.000 C 
ATOM     16  C   UNL     1      59.974  65.308  71.721  0.00  0.00    +0.000 C 
ATOM     17  C   UNL     1      59.991  64.853  71.032  0.00  0.00    +0.000 C 
ATOM     18  C   UNL     1      61.009  63.521  72.430  0.00  0.00    +0.000 C 
ATOM     19  C   UNL     1      61.380  63.091  73.029  0.00  0.00    +0.000 C 
ATOM     20  C   UNL     1      61.626  62.371  72.710  0.00  0.00    +0.000 C 
ATOM     21  C   UNL     1      61.407  62.356  71.914  0.00  0.00    +0.000 C 
ATOM     22  O   UNL     1      61.710  61.608  71.747  0.00  0.00    +0.000 OA
ATOM     23  C   UNL     1      61.346  62.030  71.160  0.00  0.00    +0.000 C 
ATOM     24  O   UNL     1      61.653  61.279  71.009  0.00  0.00    +0.000 OA
ATOM     25  C   UNL     1      60.976  62.453  70.555  0.00  0.00    +0.000 C 
ATOM     26  O   UNL     1      60.915  62.127  69.801  0.00  0.00    +0.000 OA
ATOM     27  C   UNL     1      60.545  62.550  69.196  0.00  0.00    +0.000 C 
ATOM     28  O   UNL     1      60.237  63.301  69.348  0.00  0.00    +0.000 OA
ATOM     29  C   UNL     1      60.484  62.224  68.442  0.00  0.00    +0.000 C 
ATOM     30  C   UNL     1      60.115  62.647  67.837  0.00  0.00    +0.000 C 
ATOM     31  C   UNL     1      60.053  62.321  67.083  0.00  0.00    +0.000 C 
ATOM     32  O   UNL     1      59.684  62.744  66.478  0.00  0.00    +0.000 OA
ATOM     33  O   UNL     1      60.360  61.570  66.932  0.00  0.00    +0.000 OA
ENDROOT
TORSDOF 0
ENDMDL
MODEL 4
REMARK VINA RESULT:   -15.104      1.151      1.962
REMARK INTER + INTRA:         -15.104
REMARK INTER:                 -15.104
REMARK INTRA:                   0.000
REMARK UNBOUND:                 0.000
ROOT
REMARK  Name = prednisolone succinate
REMARK                            x       y       z     vdW  Elec       q    Type
REMARK                         _______ _______ _______ _____ _____    ______ ____
ATOM      1  C   UNL     1      61.538  64.150  70.831  0.00  0.00    +0.000 C 
ATOM      2  C   UNL     1      61.988  64.664  71.293  0.00  0.00    +0.000 C 
ATOM      3  C   UNL     1      62.245  64.604  70.512  0.00  0.00    +0.000 C 
ATOM      4  C   UNL     1      62.900  65.038  70.259  0.00  0.00    +0.000 C 
ATOM      5  O   UNL     1      63.157  64.979  69.477  0.00  0.00    +0.000 OA
ATOM      6  C   UNL     1      63.297  65.531  70.787  0.00  0.00    +0.000 C 
ATOM      7  C   UNL     1      63.040  65.591  71.569  0.00  0.00    +0.000 C 
ATOM      8  C   UNL     1      63.438  66.085  72.097  0.00  0.00    +0.000 C 
ATOM      9  C   UNL     1      64.091  66.518  71.844  0.00  0.00    +0.000 C 
ATOM     10  C   UNL     1      64.348  66.458  71.062  0.00  0.00    +0.000 C 
ATOM     11  C   UNL     1      65.003  66.893  70.809  0.00  0.00    +0.000 C 
ATOM     12  C   UNL     1      65.260  66.833  70.027  0.00  0.00    +0.000 C 
ATOM     13  O   UNL     1      65.914  67.267  69.774  0.00  0.00    +0.000 OA
ATOM     14  C   UNL     1      64.863  66.340  69.499  0.00  0.00    +0.000 C 
ATOM     15  C   UNL     1      64.208  65.906  69.752  0.00  0.00    +0.000 C 
ATOM     16  C   UNL     1      63.951  65.965  70.534  0.00  0.00    +0.000 C 
ATOM     17  C   UNL     1      63.554  65.471  70.005  0.00  0.00    +0.000 C 
ATOM     18  C   UNL     1      62.385  65.157  71.822  0.00  0.00    +0.000 C 
ATOM     19  C   UNL     1      62.008  65.104  72.554  0.00  0.00    +0.000 C 
ATOM     20  C   UNL     1      61.377  64.578  72.478  0.00  0.00    +0.000 C 
ATOM     21  C   UNL     1      61.365  64.305  71.699  0.00  0.00    +0.000 C 
ATOM     22  O   UNL     1      60.709  63.813  71.781  0.00  0.00    +0.000 OA
ATOM     23  C   UNL     1      61.079  63.864  71.063  0.00  0.00    +0.000 C 
ATOM     24  O   UNL     1      60.422  63.376  71.162  0.00  0.00    +0.000 OA
ATOM     25  C   UNL     1      61.451  63.911  70.328  0.00  0.00    +0.000 C 
ATOM     26  O   UNL     1      61.166  63.471  69.692  0.00  0.00    +0.000 OA
ATOM     27  C   UNL     1      61.538  63.518  68.957  0.00  0.00    +0.000 C 
ATOM     28  O   UNL     1      62.196  64.007  68.858  0.00  0.00    +0.000 OA
ATOM     29  C   UNL     1      61.252  63.077  68.321  0.00  0.00    +0.000 C 
ATOM     30  C   UNL     1      61.624  63.124  67.586  0.00  0.00    +0.000 C 
ATOM     31  C   UNL     1      61.339  62.684  66.950  0.00  0.00    +0.000 C 
ATOM     32  O   UNL     1      61.711  62.731  66.215  0.00  0.00    +0.000 OA
ATOM     33  O   UNL     1      60.681  62.195  67.049  0.00  0.00    +0.000 OA
ENDROOT
TORSDOF 0
ENDMDL
MODEL 5
REMARK VINA RESULT:   -14.775      1.974      4.549
REMARK INTER + INTRA:         -14.775
REMARK INTER:                 -14.775
REMARK INTRA:                   0.000
REMARK UNBOUND:                 0.000
ROOT
REMARK  Name = prednisolone succinate
REMARK                            x       y       z     vdW  Elec       q    Type
REMARK                         _______ _______ _______ _____ _____    ______ ____
ATOM      1  C   UNL     1      61.346  63.347  71.899  0.00  0.00    +0.000 C 
ATOM      2  C   UNL     1      61.221  62.691  71.415  0.00  0.00    +0.000 C 
ATOM      3  C   UNL     1      61.055  63.411  71.051  0.00  0.00    +0.000 C 
ATOM      4  C   UNL     1      60.789  63.428  70.270  0.00  0.00    +0.000 C 
ATOM      5  O   UNL     1      60.623  64.149  69.906  0.00  0.00    +0.000 OA
ATOM      6  C   UNL     1      60.690  62.724  69.853  0.00  0.00    +0.000 C 
ATOM      7  C   UNL     1      60.856  62.002  70.217  0.00  0.00    +0.000 C 
ATOM      8  C   UNL     1      60.757  61.297  69.800  0.00  0.00    +0.000 C 
ATOM      9  C   UNL     1      60.492  61.313  69.020  0.00  0.00    +0.000 C 
ATOM     10  C   UNL     1      60.325  62.035  68.656  0.00  0.00    +0.000 C 
ATOM     11  C   UNL     1      60.060  62.051  67.875  0.00  0.00    +0.000 C 
ATOM     12  C   UNL     1      59.893  62.773  67.511  0.00  0.00    +0.000 C 
ATOM     13  O   UNL     1      59.628  62.789  66.730  0.00  0.00    +0.000 OA
ATOM     14  C   UNL     1      59.992  63.478  67.927  0.00  0.00    +0.000 C 
ATOM     15  C   UNL     1      60.258  63.461  68.708  0.00  0.00    +0.000 C 
ATOM     16  C   UNL     1      60.424  62.740  69.072  0.00  0.00    +0.000 C 
ATOM     17  C   UNL     1      60.524  63.445  69.489  0.00  0.00    +0.000 C 
ATOM     18  C   UNL     1      61.122  61.986  70.999  0.00  0.00    +0.000 C 
ATOM     19  C   UNL     1      61.329  61.362  71.499  0.00  0.00    +0.000 C 
ATOM     20  C   UNL     1      61.555  61.682  72.224  0.00  0.00    +0.000 C 
ATOM     21  C   UNL     1      61.489  62.504  72.173  0.00  0.00    +0.000 C 
ATOM     22  O   UNL     1      61.740  62.667  72.941  0.00  0.00    +0.000 OA
ATOM     23  C   UNL     1      61.537  63.278  72.451  0.00  0.00    +0.000 C 
ATOM     24  O   UNL     1      61.790  63.425  73.222  0.00  0.00    +0.000 OA
ATOM     25  C   UNL     1      61.332  63.907  71.958  0.00  0.00    +0.000 C 
ATOM     26  O   UNL     1      61.380  64.682  72.235  0.00  0.00    +0.000 OA
ATOM     27  C   UNL     1      61.175  65.311  71.742  0.00  0.00    +0.000 C 
ATOM     28  O   UNL     1      60.922  65.164  70.969  0.00  0.00    +0.000 OA
ATOM     29  C   UNL     1      61.223  66.086  72.019  0.00  0.00    +0.000 C 
ATOM     30  C   UNL     1      61.019  66.715  71.526  0.00  0.00    +0.000 C 
ATOM     31  C   UNL     1      61.066  67.490  71.804  0.00  0.00    +0.000 C 
ATOM     32  O   UNL     1      60.862  68.119  71.311  0.00  0.00    +0.000 OA
ATOM     33  O   UNL     1      61.319  67.637  72.575  0.00  0.00    +0.000 OA
ENDROOT
TORSDOF 0
ENDMDL
MODEL 6
REMARK VINA RESULT:   -14.192      2.646      4.610
REMARK INTER + INTRA:         -14.192
REMARK INTER:                 -14.192
REMARK INTRA:                   0.000
REMARK UNBOUND:                 0.000
ROOT
REMARK  Name = prednisolone succinate
REMARK                            x       y       z     vdW  Elec       q    Type
REMARK                         _______ _______ _______ _____ _____    ______ ____
ATOM      1  C   UNL     1      61.811  64.055  71.433  0.00  0.00    +0.000 C 
ATOM      2  C   UNL     1      61.008  63.987  71.610  0.00  0.00    +0.000 C 
ATOM      3  C   UNL     1      61.313  64.744  71.724  0.00  0.00    +0.000 C 
ATOM      4  C   UNL     1      60.822  65.351  71.993  0.00  0.00    +0.000 C 
ATOM      5  O   UNL     1      61.127  66.109  72.108  0.00  0.00    +0.000 OA
ATOM      6  C   UNL     1      60.027  65.199  72.147  0.00  0.00    +0.000 C 
ATOM      7  C   UNL     1      59.721  64.442  72.033  0.00  0.00    +0.000 C 
ATOM      8  C   UNL     1      58.925  64.290  72.187  0.00  0.00    +0.000 C 
ATOM      9  C   UNL     1      58.434  64.896  72.455  0.00  0.00    +0.000 C 
ATOM     10  C   UNL     1      58.740  65.654  72.570  0.00  0.00    +0.000 C 
ATOM     11  C   UNL     1      58.249  66.260  72.839  0.00  0.00    +0.000 C 
ATOM     12  C   UNL     1      58.554  67.018  72.953  0.00  0.00    +0.000 C 
ATOM     13  O   UNL     1      58.063  67.624  73.222  0.00  0.00    +0.000 OA
ATOM     14  C   UNL     1      59.350  67.170  72.799  0.00  0.00    +0.000 C 
ATOM     15  C   UNL     1      59.841  66.564  72.531  0.00  0.00    +0.000 C 
ATOM     16  C   UNL     1      59.536  65.806  72.416  0.00  0.00    +0.000 C 
ATOM     17  C   UNL     1      60.332  65.957  72.262  0.00  0.00    +0.000 C 
ATOM     18  C   UNL     1      60.212  63.835  71.764  0.00  0.00    +0.000 C 
ATOM     19  C   UNL     1      60.068  63.039  71.601  0.00  0.00    +0.000 C 
ATOM     20  C   UNL     1      60.775  62.699  71.346  0.00  0.00    +0.000 C 
ATOM     21  C   UNL     1      61.356  63.285  71.351  0.00  0.00    +0.000 C 
ATOM     22  O   UNL     1      61.973  62.808  71.084  0.00  0.00    +0.000 OA
ATOM     23  C   UNL     1      62.115  63.589  71.244  0.00  0.00    +0.000 C 
ATOM     24  O   UNL     1      62.722  63.098  70.976  0.00  0.00    +0.000 OA
ATOM     25  C   UNL     1      62.268  64.384  71.404  0.00  0.00    +0.000 C 
ATOM     26  O   UNL     1      63.027  64.688  71.297  0.00  0.00    +0.000 OA
ATOM     27  C   UNL     1      63.180  65.483  71.458  0.00  0.00    +0.000 C 
ATOM     28  O   UNL     1      62.572  65.974  71.726  0.00  0.00    +0.000 OA
ATOM     29  C   UNL     1      63.939  65.787  71.350  0.00  0.00    +0.000 C 
ATOM     30  C   UNL     1      64.092  66.582  71.511  0.00  0.00    +0.000 C 
ATOM     31  C   UNL     1      64.850  66.886  71.404  0.00  0.00    +0.000 C 
ATOM     32  O   UNL     1      65.003  67.681  71.564  0.00  0.00    +0.000 OA
ATOM     33  O   UNL     1      65.457  66.396  71.136  0.00  0.00    +0.000 OA
ENDROOT
TORSDOF 0
ENDMDL
MODEL 7
REMARK VINA RESULT:   -13.628      2.539      4.017
REMARK INTER + INTRA:         -13.628
REMARK INTER:                 -13.628
REMARK INTRA:                   0.000
REMARK UNBOUND:                 0.000
ROOT
REMARK  Name = prednisolone succinate
REMARK                            x       y       z     vdW  Elec       q    Type
REMARK                         _______ _______ _______ _____ _____    ______ ____
ATOM      1  C   UNL     1      60.291  65.650  72.501  0.00  0.00    +0.000 C 
ATOM      2  C   UNL     1      60.739  66.331  72.632  0.00  0.00    +0.000 C 
ATOM      3  C   UNL     1      61.155  65.721  72.264  0.00  0.00    +0.000 C 
ATOM      4  C   UNL     1      61.948  65.827  72.062  0.00  0.00    +0.000 C 
ATOM      5  O   UNL     1      62.364  65.217  71.694  0.00  0.00    +0.000 OA
ATOM      6  C   UNL     1      62.325  66.540  72.228  0.00  0.00    +0.000 C 
ATOM      7  C   UNL     1      61.909  67.150  72.597  0.00  0.00    +0.000 C 
ATOM      8  C   UNL     1      62.286  67.865  72.763  0.00  0.00    +0.000 C 
ATOM      9  C   UNL     1      63.078  67.970  72.561  0.00  0.00    +0.000 C 
ATOM     10  C   UNL     1      63.494  67.360  72.193  0.00  0.00    +0.000 C 
ATOM     11  C   UNL     1      64.287  67.466  71.990  0.00  0.00    +0.000 C 
ATOM     12  C   UNL     1      64.703  66.856  71.622  0.00  0.00    +0.000 C 
ATOM     13  O   UNL     1      65.496  66.961  71.420  0.00  0.00    +0.000 OA
ATOM     14  C   UNL     1      64.327  66.141  71.456  0.00  0.00    +0.000 C 
ATOM     15  C   UNL     1      63.534  66.036  71.658  0.00  0.00    +0.000 C 
ATOM     16  C   UNL     1      63.118  66.646  72.026  0.00  0.00    +0.000 C 
ATOM     17  C   UNL     1      62.741  65.931  71.860  0.00  0.00    +0.000 C 
ATOM     18  C   UNL     1      61.115  67.045  72.799  0.00  0.00    +0.000 C 
ATOM     19  C   UNL     1      60.568  67.544  73.164  0.00  0.00    +0.000 C 
ATOM     20  C   UNL     1      59.853  67.137  73.223  0.00  0.00    +0.000 C 
ATOM     21  C   UNL     1      59.958  66.387  72.894  0.00  0.00    +0.000 C 
ATOM     22  O   UNL     1      59.190  66.118  73.024  0.00  0.00    +0.000 OA
ATOM     23  C   UNL     1      59.727  65.629  72.666  0.00  0.00    +0.000 C 
ATOM     24  O   UNL     1      58.954  65.375  72.803  0.00  0.00    +0.000 OA
ATOM     25  C   UNL     1      60.268  65.124  72.301  0.00  0.00    +0.000 C 
ATOM     26  O   UNL     1      60.037  64.367  72.073  0.00  0.00    +0.000 OA
ATOM     27  C   UNL     1      60.578  63.862  71.708  0.00  0.00    +0.000 C 
ATOM     28  O   UNL     1      61.351  64.116  71.570  0.00  0.00    +0.000 OA
ATOM     29  C   UNL     1      60.347  63.104  71.480  0.00  0.00    +0.000 C 
ATOM     30  C   UNL     1      60.888  62.599  71.114  0.00  0.00    +0.000 C 
ATOM     31  C   UNL     1      60.656  61.841  70.886  0.00  0.00    +0.000 C 
ATOM     32  O   UNL     1      61.197  61.337  70.521  0.00  0.00    +0.000 OA
ATOM     33  O   UNL     1      59.884  61.587  71.023  0.00  0.00    +0.000 OA
ENDROOT
TORSDOF 0
ENDMDL
MODEL 8
REMARK VINA RESULT:   -13.103      1.394      4.592
REMARK INTER + INTRA:         -13.103
REMARK INTER:                 -13.103
REMARK INTRA:                   0.000
REMARK UNBOUND:                 0.000
ROOT
REMARK  Name = prednisolone succinate
REMARK                            x       y       z     vdW  Elec       q    Type
REMARK                         _______ _______ _______ _____ _____    ______ ____
ATOM      1  C   UNL     1      61.085  62.953  68.894  0.00  0.00    +0.000 C 
ATOM      2  C   UNL     1      60.743  62.510  68.288  0.00  0.00    +0.000 C 
ATOM      3  C   UNL     1      61.424  62.914  68.063  0.00  0.00    +0.000 C 
ATOM      4  C   UNL     1      61.704  62.852  67.289  0.00  0.00    +0.000 C 
ATOM      5  O   UNL     1      62.386  63.257  67.063  0.00  0.00    +0.000 OA
ATOM      6  C   UNL     1      61.301  62.387  66.741  0.00  0.00    +0.000 C 
ATOM      7  C   UNL     1      60.618  61.982  66.966  0.00  0.00    +0.000 C 
ATOM      8  C   UNL     1      60.215  61.515  66.418  0.00  0.00    +0.000 C 
ATOM      9  C   UNL     1      60.494  61.454  65.645  0.00  0.00    +0.000 C 
ATOM     10  C   UNL     1      61.177  61.859  65.419  0.00  0.00    +0.000 C 
ATOM     11  C   UNL     1      61.456  61.797  64.645  0.00  0.00    +0.000 C 
ATOM     12  C   UNL     1      62.138  62.202  64.419  0.00  0.00    +0.000 C 
ATOM     13  O   UNL     1      62.418  62.140  63.645  0.00  0.00    +0.000 OA
ATOM     14  C   UNL     1      62.542  62.668  64.967  0.00  0.00    +0.000 C 
ATOM     15  C   UNL     1      62.263  62.730  65.741  0.00  0.00    +0.000 C 
ATOM     16  C   UNL     1      61.580  62.325  65.967  0.00  0.00    +0.000 C 
ATOM     17  C   UNL     1      61.983  62.792  66.515  0.00  0.00    +0.000 C 
ATOM     18  C   UNL     1      60.339  62.043  67.741  0.00  0.00    +0.000 C 
ATOM     19  C   UNL     1      59.686  61.710  68.120  0.00  0.00    +0.000 C 
ATOM     20  C   UNL     1      59.686  61.971  68.903  0.00  0.00    +0.000 C 
ATOM     21  C   UNL     1      60.339  62.465  69.007  0.00  0.00    +0.000 C 
ATOM     22  O   UNL     1      60.203  62.635  69.802  0.00  0.00    +0.000 OA
ATOM     23  C   UNL     1      60.843  62.961  69.430  0.00  0.00    +0.000 C 
ATOM     24  O   UNL     1      60.694  63.121  70.226  0.00  0.00    +0.000 OA
ATOM     25  C   UNL     1      61.499  63.298  69.059  0.00  0.00    +0.000 C 
ATOM     26  O   UNL     1      62.003  63.794  69.481  0.00  0.00    +0.000 OA
ATOM     27  C   UNL     1      62.659  64.131  69.110  0.00  0.00    +0.000 C 
ATOM     28  O   UNL     1      62.809  63.971  68.313  0.00  0.00    +0.000 OA
ATOM     29  C   UNL     1      63.163  64.627  69.533  0.00  0.00    +0.000 C 
ATOM     30  C   UNL     1      63.819  64.964  69.161  0.00  0.00    +0.000 C 
ATOM     31  C   UNL     1      64.323  65.460  69.584  0.00  0.00    +0.000 C 
ATOM     32  O   UNL     1      64.978  65.797  69.212  0.00  0.00    +0.000 OA
ATOM     33  O   UNL     1      64.173  65.620  70.379  0.00  0.00    +0.000 OA
ENDROOT
TORSDOF 0
ENDMDL
