MODEL 1
REMARK VINA RESULT:   -14.121      0.000      0.000
REMARK INTER + INTRA:         -14.121
REMARK INTER:                 -14.121
REMARK INTRA:                   0.000
REMARK UNBOUND:                 0.000
ROOT
REMARK  Name = prednisolone
REMARK                            x       y       z     vdW  Elec       q    Type
REMARK                         _______ _______ _______ _____ _____    ______ ____
ATOM      1  C   UNL     1      61.390  63.252  67.667  0.00  0.00    +0.000 C 
ATOM      2  C   UNL     1      60.895  62.797  67.188  0.00  0.00    +0.000 C 
ATOM      3  C   UNL     1      61.645  62.926  66.869  0.00  0.00    +0.000 C 
ATOM      4  C   UNL     1      61.841  62.610  66.133  0.00  0.00    +0.000 C 
ATOM      5  O   UNL     1      62.590  62.740  65.813  0.00  0.00    +0.000 OA
ATOM      6  C   UNL     1      61.286  62.165  65.715  0.00  0.00    +0.000 C 
ATOM      7  C   UNL     1      60.536  62.035  66.034  0.00  0.00    +0.000 C 
ATOM      8  C   UNL     1      59.982  61.589  65.616  0.00  0.00    +0.000 C 
ATOM      9  C   UNL     1      60.177  61.273  64.879  0.00  0.00    +0.000 C 
ATOM     10  C   UNL     1      60.926  61.403  64.561  0.00  0.00    +0.000 C 
ATOM     11  C   UNL     1      61.121  61.086  63.824  0.00  0.00    +0.000 C 
ATOM     12  C   UNL     1      61.871  61.216  63.505  0.00  0.00    +0.000 C 
ATOM     13  O   UNL     1      62.066  60.900  62.769  0.00  0.00    +0.000 OA
ATOM     14  C   UNL     1      62.426  61.662  63.923  0.00  0.00    +0.000 C 
ATOM     15  C   UNL     1      62.230  61.978  64.659  0.00  0.00    +0.000 C 
ATOM     16  C   UNL     1      61.481  61.849  64.979  0.00  0.00    +0.000 C 
ATOM     17  C   UNL     1      62.036  62.294  65.396  0.00  0.00    +0.000 C 
ATOM     18  C   UNL     1      60.341  62.351  66.771  0.00  0.00    +0.000 C 
ATOM     19  C   UNL     1      59.651  62.316  67.221  0.00  0.00    +0.000 C 
ATOM     20  C   UNL     1      59.779  62.740  67.917  0.00  0.00    +0.000 C 
ATOM     21  C   UNL     1      60.548  63.037  67.897  0.00  0.00    +0.000 C 
ATOM     22  O   UNL     1      60.521  63.418  68.629  0.00  0.00    +0.000 OA
ATOM     23  C   UNL     1      61.199  63.452  68.186  0.00  0.00    +0.000 C 
ATOM     24  O   UNL     1      61.894  63.493  67.741  0.00  0.00    +0.000 OA
ATOM     25  C   UNL     1      61.157  63.828  68.920  0.00  0.00    +0.000 C 
ATOM     26  O   UNL     1      61.808  64.244  69.208  0.00  0.00    +0.000 OA
ENDROOT
TORSDOF 0
ENDMDL
MODEL 2
REMARK VINA RESULT:   -13.404      0.997      4.338
REMARK INTER + INTRA:         -13.404
REMARK INTER:                 -13.404
REMARK INTRA:                   0.000
REMARK UNBOUND:                 0.000
ROOT
REMARK  Name = prednisolone
REMARK                            x       y       z     vdW  Elec       q    Type
REMARK                         _______ _______ _______ _____ _____    ______ ____
ATOM      1  C   UNL     1      60.873  61.086  63.980  0.00  0.00    +0.000 C 
ATOM      2  C   UNL     1      61.327  61.549  64.491  0.00  0.00    +0.000 C 
ATOM      3  C   UNL     1      60.561  61.403  64.761  0.00  0.00    +0.000 C 
ATOM      4  C   UNL     1      60.312  61.713  65.484  0.00  0.00    +0.000 C 
ATOM      5  O   UNL     1      59.547  61.567  65.755  0.00  0.00    +0.000 OA
ATOM      6  C   UNL     1      60.830  62.168  65.937  0.00  0.00    +0.000 C 
ATOM      7  C   UNL     1      61.596  62.314  65.667  0.00  0.00    +0.000 C 
ATOM      8  C   UNL     1      62.114  62.769  66.121  0.00  0.00    +0.000 C 
ATOM      9  C   UNL     1      61.865  63.079  66.844  0.00  0.00    +0.000 C 
ATOM     10  C   UNL     1      61.100  62.933  67.113  0.00  0.00    +0.000 C 
ATOM     11  C   UNL     1      60.852  63.243  67.837  0.00  0.00    +0.000 C 
ATOM     12  C   UNL     1      60.086  63.097  68.107  0.00  0.00    +0.000 C 
ATOM     13  O   UNL     1      59.838  63.407  68.830  0.00  0.00    +0.000 OA
ATOM     14  C   UNL     1      59.568  62.642  67.654  0.00  0.00    +0.000 C 
ATOM     15  C   UNL     1      59.817  62.332  66.931  0.00  0.00    +0.000 C 
ATOM     16  C   UNL     1      60.582  62.478  66.660  0.00  0.00    +0.000 C 
ATOM     17  C   UNL     1      60.064  62.022  66.207  0.00  0.00    +0.000 C 
ATOM     18  C   UNL     1      61.845  62.004  64.944  0.00  0.00    +0.000 C 
ATOM     19  C   UNL     1      62.561  62.055  64.539  0.00  0.00    +0.000 C 
ATOM     20  C   UNL     1      62.486  61.631  63.835  0.00  0.00    +0.000 C 
ATOM     21  C   UNL     1      61.723  61.318  63.805  0.00  0.00    +0.000 C 
ATOM     22  O   UNL     1      61.804  60.940  63.076  0.00  0.00    +0.000 OA
ATOM     23  C   UNL     1      61.101  60.891  63.475  0.00  0.00    +0.000 C 
ATOM     24  O   UNL     1      60.380  60.835  63.874  0.00  0.00    +0.000 OA
ATOM     25  C   UNL     1      61.198  60.518  62.744  0.00  0.00    +0.000 C 
ATOM     26  O   UNL     1      60.574  60.091  62.414  0.00  0.00    +0.000 OA
ENDROOT
TORSDOF 0
ENDMDL
MODEL 3
REMARK VINA RESULT:   -12.922      2.667      4.579
REMARK INTER + INTRA:         -12.922
REMARK INTER:                 -12.922
REMARK INTRA:                   0.000
REMARK UNBOUND:                 0.000
ROOT
REMARK  Name = prednisolone
REMARK                            x       y       z     vdW  Elec       q    Type
REMARK                         _______ _______ _______ _____ _____    ______ ____
ATOM      1  C   UNL     1      61.601  64.539  71.670  0.00  0.00    +0.000 C 
ATOM      2  C   UNL     1      61.373  63.762  71.505  0.00  0.00    +0.000 C 
ATOM      3  C   UNL     1      61.353  64.264  70.850  0.00  0.00    +0.000 C 
ATOM      4  C   UNL     1      61.119  63.974  70.114  0.00  0.00    +0.000 C 
ATOM      5  O   UNL     1      61.098  64.475  69.460  0.00  0.00    +0.000 OA
ATOM      6  C   UNL     1      60.905  63.181  70.033  0.00  0.00    +0.000 C 
ATOM      7  C   UNL     1      60.926  62.679  70.688  0.00  0.00    +0.000 C 
ATOM      8  C   UNL     1      60.712  61.886  70.606  0.00  0.00    +0.000 C 
ATOM      9  C   UNL     1      60.478  61.595  69.870  0.00  0.00    +0.000 C 
ATOM     10  C   UNL     1      60.458  62.098  69.217  0.00  0.00    +0.000 C 
ATOM     11  C   UNL     1      60.224  61.806  68.480  0.00  0.00    +0.000 C 
ATOM     12  C   UNL     1      60.204  62.308  67.827  0.00  0.00    +0.000 C 
ATOM     13  O   UNL     1      59.970  62.017  67.091  0.00  0.00    +0.000 OA
ATOM     14  C   UNL     1      60.417  63.101  67.907  0.00  0.00    +0.000 C 
ATOM     15  C   UNL     1      60.651  63.391  68.643  0.00  0.00    +0.000 C 
ATOM     16  C   UNL     1      60.672  62.890  69.298  0.00  0.00    +0.000 C 
ATOM     17  C   UNL     1      60.885  63.683  69.379  0.00  0.00    +0.000 C 
ATOM     18  C   UNL     1      61.159  62.970  71.424  0.00  0.00    +0.000 C 
ATOM     19  C   UNL     1      61.233  62.609  72.162  0.00  0.00    +0.000 C 
ATOM     20  C   UNL     1      61.492  63.179  72.699  0.00  0.00    +0.000 C 
ATOM     21  C   UNL     1      61.578  63.892  72.294  0.00  0.00    +0.000 C 
ATOM     22  O   UNL     1      61.831  64.338  72.940  0.00  0.00    +0.000 OA
ATOM     23  C   UNL     1      61.759  64.692  72.214  0.00  0.00    +0.000 C 
ATOM     24  O   UNL     1      61.688  65.061  71.479  0.00  0.00    +0.000 OA
ATOM     25  C   UNL     1      62.010  65.125  72.871  0.00  0.00    +0.000 C 
ATOM     26  O   UNL     1      62.190  65.927  72.791  0.00  0.00    +0.000 OA
ENDROOT
TORSDOF 0
ENDMDL
MODEL 4
REMARK VINA RESULT:   -12.806      2.857      6.014
REMARK INTER + INTRA:         -12.806
REMARK INTER:                 -12.806
REMARK INTRA:                   0.000
REMARK UNBOUND:                 0.000
ROOT
REMARK  Name = prednisolone
REMARK                            x       y       z     vdW  Elec       q    Type
REMARK                         _______ _______ _______ _____ _____    ______ ____
ATOM      1  C   UNL     1      60.909  62.879  69.221  0.00  0.00    +0.000 C 
ATOM      2  C   UNL     1      60.891  62.825  70.044  0.00  0.00    +0.000 C 
ATOM      3  C   UNL     1      61.208  63.533  69.761  0.00  0.00    +0.000 C 
ATOM      4  C   UNL     1      61.471  64.108  70.291  0.00  0.00    +0.000 C 
ATOM      5  O   UNL     1      61.789  64.814  70.009  0.00  0.00    +0.000 OA
ATOM      6  C   UNL     1      61.417  63.975  71.103  0.00  0.00    +0.000 C 
ATOM      7  C   UNL     1      61.100  63.268  71.386  0.00  0.00    +0.000 C 
ATOM      8  C   UNL     1      61.046  63.136  72.199  0.00  0.00    +0.000 C 
ATOM      9  C   UNL     1      61.309  63.711  72.729  0.00  0.00    +0.000 C 
ATOM     10  C   UNL     1      61.626  64.418  72.445  0.00  0.00    +0.000 C 
ATOM     11  C   UNL     1      61.890  64.993  72.976  0.00  0.00    +0.000 C 
ATOM     12  C   UNL     1      62.207  65.700  72.693  0.00  0.00    +0.000 C 
ATOM     13  O   UNL     1      62.470  66.275  73.222  0.00  0.00    +0.000 OA
ATOM     14  C   UNL     1      62.261  65.832  71.880  0.00  0.00    +0.000 C 
ATOM     15  C   UNL     1      61.998  65.257  71.351  0.00  0.00    +0.000 C 
ATOM     16  C   UNL     1      61.680  64.550  71.633  0.00  0.00    +0.000 C 
ATOM     17  C   UNL     1      61.735  64.683  70.821  0.00  0.00    +0.000 C 
ATOM     18  C   UNL     1      60.836  62.693  70.857  0.00  0.00    +0.000 C 
ATOM     19  C   UNL     1      60.501  61.949  70.972  0.00  0.00    +0.000 C 
ATOM     20  C   UNL     1      60.347  61.620  70.231  0.00  0.00    +0.000 C 
ATOM     21  C   UNL     1      60.588  62.162  69.657  0.00  0.00    +0.000 C 
ATOM     22  O   UNL     1      60.378  61.706  69.002  0.00  0.00    +0.000 OA
ATOM     23  C   UNL     1      60.708  62.438  68.889  0.00  0.00    +0.000 C 
ATOM     24  O   UNL     1      61.043  63.182  68.765  0.00  0.00    +0.000 OA
ATOM     25  C   UNL     1      60.492  61.969  68.245  0.00  0.00    +0.000 C 
ATOM     26  O   UNL     1      60.611  62.245  67.477  0.00  0.00    +0.000 OA
ENDROOT
TORSDOF 0
ENDMDL
MODEL 5
REMARK VINA RESULT:   -12.531      4.967      6.088
REMARK INTER + INTRA:         -12.531
REMARK INTER:                 -12.531
REMARK INTRA:                   0.000
REMARK UNBOUND:                 0.000
ROOT
REMARK  Name = prednisolone
REMARK                            x       y       z     vdW  Elec       q    Type
REMARK                         _______ _______ _______ _____ _____    ______ ____
ATOM      1  C   UNL     1      61.612  63.157  70.890  0.00  0.00    +0.000 C 
ATOM      2  C   UNL     1      61.914  63.804  71.304  0.00  0.00    +0.000 C 
ATOM      3  C   UNL     1      62.260  63.688  70.564  0.00  0.00    +0.000 C 
ATOM      4  C   UNL     1      62.852  64.197  70.300  0.00  0.00    +0.000 C 
ATOM      5  O   UNL     1      63.198  64.082  69.561  0.00  0.00    +0.000 OA
ATOM      6  C   UNL     1      63.099  64.823  70.777  0.00  0.00    +0.000 C 
ATOM      7  C   UNL     1      62.754  64.940  71.518  0.00  0.00    +0.000 C 
ATOM      8  C   UNL     1      63.002  65.566  71.995  0.00  0.00    +0.000 C 
ATOM      9  C   UNL     1      63.594  66.076  71.731  0.00  0.00    +0.000 C 
ATOM     10  C   UNL     1      63.939  65.959  70.991  0.00  0.00    +0.000 C 
ATOM     11  C   UNL     1      64.532  66.470  70.728  0.00  0.00    +0.000 C 
ATOM     12  C   UNL     1      64.877  66.354  69.988  0.00  0.00    +0.000 C 
ATOM     13  O   UNL     1      65.470  66.863  69.725  0.00  0.00    +0.000 OA
ATOM     14  C   UNL     1      64.630  65.728  69.511  0.00  0.00    +0.000 C 
ATOM     15  C   UNL     1      64.038  65.218  69.774  0.00  0.00    +0.000 C 
ATOM     16  C   UNL     1      63.692  65.333  70.514  0.00  0.00    +0.000 C 
ATOM     17  C   UNL     1      63.445  64.707  70.037  0.00  0.00    +0.000 C 
ATOM     18  C   UNL     1      62.161  64.430  71.781  0.00  0.00    +0.000 C 
ATOM     19  C   UNL     1      61.723  64.407  72.479  0.00  0.00    +0.000 C 
ATOM     20  C   UNL     1      61.204  63.767  72.434  0.00  0.00    +0.000 C 
ATOM     21  C   UNL     1      61.323  63.393  71.707  0.00  0.00    +0.000 C 
ATOM     22  O   UNL     1      60.757  62.803  71.812  0.00  0.00    +0.000 OA
ATOM     23  C   UNL     1      61.188  62.825  71.126  0.00  0.00    +0.000 C 
ATOM     24  O   UNL     1      61.622  62.841  70.424  0.00  0.00    +0.000 OA
ATOM     25  C   UNL     1      60.617  62.240  71.245  0.00  0.00    +0.000 C 
ATOM     26  O   UNL     1      60.482  61.672  70.663  0.00  0.00    +0.000 OA
ENDROOT
TORSDOF 0
ENDMDL
MODEL 6
REMARK VINA RESULT:   -12.455      2.207      5.174
REMARK INTER + INTRA:         -12.455
REMARK INTER:                 -12.455
REMARK INTRA:                   0.000
REMARK UNBOUND:                 0.000
ROOT
REMARK  Name = prednisolone
REMARK                            x       y       z     vdW  Elec       q    Type
REMARK                         _______ _______ _______ _____ _____    ______ ____
ATOM      1  C   UNL     1      60.211  62.290  67.959  0.00  0.00    +0.000 C 
ATOM      2  C   UNL     1      60.745  62.763  68.374  0.00  0.00    +0.000 C 
ATOM      3  C   UNL     1      60.367  62.195  68.839  0.00  0.00    +0.000 C 
ATOM      4  C   UNL     1      60.538  62.139  69.644  0.00  0.00    +0.000 C 
ATOM      5  O   UNL     1      60.160  61.572  70.108  0.00  0.00    +0.000 OA
ATOM      6  C   UNL     1      61.087  62.652  69.984  0.00  0.00    +0.000 C 
ATOM      7  C   UNL     1      61.465  63.220  69.520  0.00  0.00    +0.000 C 
ATOM      8  C   UNL     1      62.014  63.733  69.862  0.00  0.00    +0.000 C 
ATOM      9  C   UNL     1      62.185  63.678  70.667  0.00  0.00    +0.000 C 
ATOM     10  C   UNL     1      61.807  63.110  71.130  0.00  0.00    +0.000 C 
ATOM     11  C   UNL     1      61.979  63.055  71.936  0.00  0.00    +0.000 C 
ATOM     12  C   UNL     1      61.601  62.487  72.400  0.00  0.00    +0.000 C 
ATOM     13  O   UNL     1      61.772  62.432  73.205  0.00  0.00    +0.000 OA
ATOM     14  C   UNL     1      61.051  61.974  72.059  0.00  0.00    +0.000 C 
ATOM     15  C   UNL     1      60.880  62.030  71.254  0.00  0.00    +0.000 C 
ATOM     16  C   UNL     1      61.258  62.597  70.789  0.00  0.00    +0.000 C 
ATOM     17  C   UNL     1      60.709  62.084  70.449  0.00  0.00    +0.000 C 
ATOM     18  C   UNL     1      61.294  63.276  68.715  0.00  0.00    +0.000 C 
ATOM     19  C   UNL     1      61.577  63.776  68.124  0.00  0.00    +0.000 C 
ATOM     20  C   UNL     1      61.202  63.572  67.417  0.00  0.00    +0.000 C 
ATOM     21  C   UNL     1      60.688  62.946  67.572  0.00  0.00    +0.000 C 
ATOM     22  O   UNL     1      60.405  62.864  66.801  0.00  0.00    +0.000 OA
ATOM     23  C   UNL     1      60.127  62.373  67.383  0.00  0.00    +0.000 C 
ATOM     24  O   UNL     1      59.838  61.868  67.968  0.00  0.00    +0.000 OA
ATOM     25  C   UNL     1      59.853  62.304  66.607  0.00  0.00    +0.000 C 
ATOM     26  O   UNL     1      59.291  61.730  66.418  0.00  0.00    +0.000 OA
ENDROOT
TORSDOF 0
ENDMDL
MODEL 7
REMARK VINA RESULT:   -12.449      4.917      6.916
REMARK INTER + INTRA:         -12.449
REMARK INTER:                 -12.449
REMARK INTRA:                   0.000
REMARK UNBOUND:                 0.000
ROOT
REMARK  Name = prednisolone
REMARK                            x       y       z     vdW  Elec       q    Type
REMARK                         _______ _______ _______ _____ _____    ______ ____
ATOM      1  C   UNL     1      65.268  66.734  70.341  0.00  0.00    +0.000 C 
ATOM      2  C   UNL     1      64.679  66.591  70.901  0.00  0.00    +0.000 C 
ATOM      3  C   UNL     1      64.703  66.036  70.291  0.00  0.00    +0.000 C 
ATOM      4  C   UNL     1      64.167  65.409  70.282  0.00  0.00    +0.000 C 
ATOM      5  O   UNL     1      64.191  64.854  69.672  0.00  0.00    +0.000 OA
ATOM      6  C   UNL     1      63.607  65.337  70.883  0.00  0.00    +0.000 C 
ATOM      7  C   UNL     1      63.582  65.892  71.493  0.00  0.00    +0.000 C 
ATOM      8  C   UNL     1      63.021  65.819  72.094  0.00  0.00    +0.000 C 
ATOM      9  C   UNL     1      62.485  65.192  72.084  0.00  0.00    +0.000 C 
ATOM     10  C   UNL     1      62.510  64.638  71.474  0.00  0.00    +0.000 C 
ATOM     11  C   UNL     1      61.973  64.011  71.465  0.00  0.00    +0.000 C 
ATOM     12  C   UNL     1      61.998  63.457  70.855  0.00  0.00    +0.000 C 
ATOM     13  O   UNL     1      61.462  62.830  70.846  0.00  0.00    +0.000 OA
ATOM     14  C   UNL     1      62.558  63.529  70.254  0.00  0.00    +0.000 C 
ATOM     15  C   UNL     1      63.094  64.155  70.263  0.00  0.00    +0.000 C 
ATOM     16  C   UNL     1      63.070  64.710  70.873  0.00  0.00    +0.000 C 
ATOM     17  C   UNL     1      63.631  64.782  70.272  0.00  0.00    +0.000 C 
ATOM     18  C   UNL     1      64.118  66.519  71.502  0.00  0.00    +0.000 C 
ATOM     19  C   UNL     1      64.226  67.145  72.028  0.00  0.00    +0.000 C 
ATOM     20  C   UNL     1      64.853  67.604  71.752  0.00  0.00    +0.000 C 
ATOM     21  C   UNL     1      65.134  67.262  71.055  0.00  0.00    +0.000 C 
ATOM     22  O   UNL     1      65.730  67.813  70.913  0.00  0.00    +0.000 OA
ATOM     23  C   UNL     1      65.624  67.198  70.396  0.00  0.00    +0.000 C 
ATOM     24  O   UNL     1      65.523  66.574  69.865  0.00  0.00    +0.000 OA
ATOM     25  C   UNL     1      66.217  67.758  70.267  0.00  0.00    +0.000 C 
ATOM     26  O   UNL     1      66.708  67.693  69.608  0.00  0.00    +0.000 OA
ENDROOT
TORSDOF 0
ENDMDL
