MODEL 1
REMARK VINA RESULT:    -6.955      0.000      0.000
REMARK INTER + INTRA:          -6.955
REMARK INTER:                  -6.955
REMARK INTRA:                   0.000
REMARK UNBOUND:                 0.000
ROOT
REMARK  Name = pregabalin
REMARK                            x       y       z     vdW  Elec       q    Type
REMARK                         _______ _______ _______ _____ _____    ______ ____
ATOM      1  C   UNL     1      62.346  61.546  63.784  0.00  0.00    +0.000 C 
ATOM      2  C   UNL     1      62.021  61.861  64.473  0.00  0.00    +0.000 C 
ATOM      3  C   UNL     1      62.472  62.359  64.952  0.00  0.00    +0.000 C 
ATOM      4  C   UNL     1      61.245  61.679  64.684  0.00  0.00    +0.000 C 
ATOM      5  C   UNL     1      60.919  61.994  65.373  0.00  0.00    +0.000 C 
ATOM      6  C   UNL     1      61.370  62.492  65.852  0.00  0.00    +0.000 C 
ATOM      7  N   UNL     1      61.046  62.808  66.542  0.00  0.00    +0.000 NA
ATOM      8  C   UNL     1      60.143  61.812  65.584  0.00  0.00    +0.000 C 
ATOM      9  C   UNL     1      59.817  62.127  66.274  0.00  0.00    +0.000 C 
ATOM     10  O   UNL     1      59.041  61.945  66.485  0.00  0.00    +0.000 OA
ATOM     11  O   UNL     1      60.269  62.625  66.752  0.00  0.00    +0.000 OA
ENDROOT
TORSDOF 0
ENDMDL
MODEL 2
REMARK VINA RESULT:    -6.923      2.018      2.889
REMARK INTER + INTRA:          -6.923
REMARK INTER:                  -6.923
REMARK INTRA:                   0.000
REMARK UNBOUND:                 0.000
ROOT
REMARK  Name = pregabalin
REMARK                            x       y       z     vdW  Elec       q    Type
REMARK                         _______ _______ _______ _____ _____    ______ ____
ATOM      1  C   UNL     1      61.573  62.819  67.081  0.00  0.00    +0.000 C 
ATOM      2  C   UNL     1      61.410  62.435  66.369  0.00  0.00    +0.000 C 
ATOM      3  C   UNL     1      60.676  62.077  66.253  0.00  0.00    +0.000 C 
ATOM      4  C   UNL     1      61.980  62.410  65.774  0.00  0.00    +0.000 C 
ATOM      5  C   UNL     1      61.816  62.027  65.062  0.00  0.00    +0.000 C 
ATOM      6  C   UNL     1      61.082  61.669  64.945  0.00  0.00    +0.000 C 
ATOM      7  N   UNL     1      60.918  61.285  64.234  0.00  0.00    +0.000 NA
ATOM      8  C   UNL     1      62.386  62.001  64.466  0.00  0.00    +0.000 C 
ATOM      9  C   UNL     1      62.223  61.618  63.754  0.00  0.00    +0.000 C 
ATOM     10  O   UNL     1      62.793  61.592  63.159  0.00  0.00    +0.000 OA
ATOM     11  O   UNL     1      61.489  61.260  63.638  0.00  0.00    +0.000 OA
ENDROOT
TORSDOF 0
ENDMDL
MODEL 3
REMARK VINA RESULT:    -6.207      6.763      7.475
REMARK INTER + INTRA:          -6.207
REMARK INTER:                  -6.207
REMARK INTRA:                   0.000
REMARK UNBOUND:                 0.000
ROOT
REMARK  Name = pregabalin
REMARK                            x       y       z     vdW  Elec       q    Type
REMARK                         _______ _______ _______ _____ _____    ______ ____
ATOM      1  C   UNL     1      66.242  67.820  69.857  0.00  0.00    +0.000 C 
ATOM      2  C   UNL     1      65.764  67.249  70.215  0.00  0.00    +0.000 C 
ATOM      3  C   UNL     1      65.683  67.236  71.036  0.00  0.00    +0.000 C 
ATOM      4  C   UNL     1      65.368  66.694  69.752  0.00  0.00    +0.000 C 
ATOM      5  C   UNL     1      64.890  66.124  70.110  0.00  0.00    +0.000 C 
ATOM      6  C   UNL     1      64.809  66.110  70.930  0.00  0.00    +0.000 C 
ATOM      7  N   UNL     1      64.332  65.540  71.289  0.00  0.00    +0.000 NA
ATOM      8  C   UNL     1      64.494  65.568  69.647  0.00  0.00    +0.000 C 
ATOM      9  C   UNL     1      64.016  64.998  70.004  0.00  0.00    +0.000 C 
ATOM     10  O   UNL     1      63.620  64.442  69.542  0.00  0.00    +0.000 OA
ATOM     11  O   UNL     1      63.935  64.984  70.825  0.00  0.00    +0.000 OA
ENDROOT
TORSDOF 0
ENDMDL
MODEL 4
REMARK VINA RESULT:    -6.207      4.849      5.824
REMARK INTER + INTRA:          -6.207
REMARK INTER:                  -6.207
REMARK INTRA:                   0.000
REMARK UNBOUND:                 0.000
ROOT
REMARK  Name = pregabalin
REMARK                            x       y       z     vdW  Elec       q    Type
REMARK                         _______ _______ _______ _____ _____    ______ ____
ATOM      1  C   UNL     1      61.626  62.602  72.992  0.00  0.00    +0.000 C 
ATOM      2  C   UNL     1      61.329  62.845  72.261  0.00  0.00    +0.000 C 
ATOM      3  C   UNL     1      61.182  63.645  72.121  0.00  0.00    +0.000 C 
ATOM      4  C   UNL     1      61.180  62.290  71.671  0.00  0.00    +0.000 C 
ATOM      5  C   UNL     1      60.883  62.532  70.940  0.00  0.00    +0.000 C 
ATOM      6  C   UNL     1      60.736  63.332  70.800  0.00  0.00    +0.000 C 
ATOM      7  N   UNL     1      60.439  63.576  70.070  0.00  0.00    +0.000 NA
ATOM      8  C   UNL     1      60.734  61.977  70.350  0.00  0.00    +0.000 C 
ATOM      9  C   UNL     1      60.437  62.220  69.619  0.00  0.00    +0.000 C 
ATOM     10  O   UNL     1      60.288  61.664  69.029  0.00  0.00    +0.000 OA
ATOM     11  O   UNL     1      60.290  63.019  69.479  0.00  0.00    +0.000 OA
ENDROOT
TORSDOF 0
ENDMDL
MODEL 5
REMARK VINA RESULT:    -6.136      2.843      3.977
REMARK INTER + INTRA:          -6.136
REMARK INTER:                  -6.136
REMARK INTRA:                   0.000
REMARK UNBOUND:                 0.000
ROOT
REMARK  Name = pregabalin
REMARK                            x       y       z     vdW  Elec       q    Type
REMARK                         _______ _______ _______ _____ _____    ______ ____
ATOM      1  C   UNL     1      60.295  61.679  70.647  0.00  0.00    +0.000 C 
ATOM      2  C   UNL     1      60.598  62.148  70.040  0.00  0.00    +0.000 C 
ATOM      3  C   UNL     1      61.001  62.845  70.220  0.00  0.00    +0.000 C 
ATOM      4  C   UNL     1      60.499  61.922  69.253  0.00  0.00    +0.000 C 
ATOM      5  C   UNL     1      60.802  62.391  68.646  0.00  0.00    +0.000 C 
ATOM      6  C   UNL     1      61.205  63.088  68.827  0.00  0.00    +0.000 C 
ATOM      7  N   UNL     1      61.509  63.558  68.221  0.00  0.00    +0.000 NA
ATOM      8  C   UNL     1      60.703  62.164  67.860  0.00  0.00    +0.000 C 
ATOM      9  C   UNL     1      61.006  62.634  67.253  0.00  0.00    +0.000 C 
ATOM     10  O   UNL     1      60.907  62.407  66.467  0.00  0.00    +0.000 OA
ATOM     11  O   UNL     1      61.409  63.331  67.433  0.00  0.00    +0.000 OA
ENDROOT
TORSDOF 0
ENDMDL
MODEL 6
REMARK VINA RESULT:    -6.023      5.988      6.829
REMARK INTER + INTRA:          -6.023
REMARK INTER:                  -6.023
REMARK INTRA:                   0.000
REMARK UNBOUND:                 0.000
ROOT
REMARK  Name = pregabalin
REMARK                            x       y       z     vdW  Elec       q    Type
REMARK                         _______ _______ _______ _____ _____    ______ ____
ATOM      1  C   UNL     1      61.633  61.499  71.515  0.00  0.00    +0.000 C 
ATOM      2  C   UNL     1      61.132  62.155  71.527  0.00  0.00    +0.000 C 
ATOM      3  C   UNL     1      60.515  62.213  70.983  0.00  0.00    +0.000 C 
ATOM      4  C   UNL     1      61.249  62.752  72.084  0.00  0.00    +0.000 C 
ATOM      5  C   UNL     1      60.748  63.408  72.097  0.00  0.00    +0.000 C 
ATOM      6  C   UNL     1      60.131  63.467  71.552  0.00  0.00    +0.000 C 
ATOM      7  N   UNL     1      59.631  64.122  71.564  0.00  0.00    +0.000 NA
ATOM      8  C   UNL     1      60.865  64.005  72.653  0.00  0.00    +0.000 C 
ATOM      9  C   UNL     1      60.364  64.661  72.666  0.00  0.00    +0.000 C 
ATOM     10  O   UNL     1      60.481  65.258  73.222  0.00  0.00    +0.000 OA
ATOM     11  O   UNL     1      59.747  64.720  72.121  0.00  0.00    +0.000 OA
ENDROOT
TORSDOF 0
ENDMDL
MODEL 7
REMARK VINA RESULT:    -5.762      7.175      8.013
REMARK INTER + INTRA:          -5.762
REMARK INTER:                  -5.762
REMARK INTRA:                   0.000
REMARK UNBOUND:                 0.000
ROOT
REMARK  Name = pregabalin
REMARK                            x       y       z     vdW  Elec       q    Type
REMARK                         _______ _______ _______ _____ _____    ______ ____
ATOM      1  C   UNL     1      63.143  65.194  69.847  0.00  0.00    +0.000 C 
ATOM      2  C   UNL     1      63.730  65.621  70.239  0.00  0.00    +0.000 C 
ATOM      3  C   UNL     1      63.767  65.610  71.063  0.00  0.00    +0.000 C 
ATOM      4  C   UNL     1      64.279  66.059  69.807  0.00  0.00    +0.000 C 
ATOM      5  C   UNL     1      64.867  66.486  70.199  0.00  0.00    +0.000 C 
ATOM      6  C   UNL     1      64.904  66.475  71.023  0.00  0.00    +0.000 C 
ATOM      7  N   UNL     1      65.490  66.902  71.416  0.00  0.00    +0.000 NA
ATOM      8  C   UNL     1      65.416  66.924  69.768  0.00  0.00    +0.000 C 
ATOM      9  C   UNL     1      66.003  67.351  70.159  0.00  0.00    +0.000 C 
ATOM     10  O   UNL     1      66.553  67.789  69.728  0.00  0.00    +0.000 OA
ATOM     11  O   UNL     1      66.040  67.340  70.983  0.00  0.00    +0.000 OA
ENDROOT
TORSDOF 0
ENDMDL
MODEL 8
REMARK VINA RESULT:    -5.636     24.881     25.639
REMARK INTER + INTRA:          -5.636
REMARK INTER:                  -5.636
REMARK INTRA:                   0.000
REMARK UNBOUND:                 0.000
ROOT
REMARK  Name = pregabalin
REMARK                            x       y       z     vdW  Elec       q    Type
REMARK                         _______ _______ _______ _____ _____    ______ ____
ATOM      1  C   UNL     1      69.538  80.024  50.969  0.00  0.00    +0.000 C 
ATOM      2  C   UNL     1      69.910  79.567  50.391  0.00  0.00    +0.000 C 
ATOM      3  C   UNL     1      69.521  78.914  50.069  0.00  0.00    +0.000 C 
ATOM      4  C   UNL     1      70.669  79.762  50.135  0.00  0.00    +0.000 C 
ATOM      5  C   UNL     1      71.040  79.305  49.557  0.00  0.00    +0.000 C 
ATOM      6  C   UNL     1      70.651  78.652  49.235  0.00  0.00    +0.000 C 
ATOM      7  N   UNL     1      71.021  78.195  48.657  0.00  0.00    +0.000 NA
ATOM      8  C   UNL     1      71.799  79.500  49.301  0.00  0.00    +0.000 C 
ATOM      9  C   UNL     1      72.170  79.043  48.723  0.00  0.00    +0.000 C 
ATOM     10  O   UNL     1      72.929  79.237  48.467  0.00  0.00    +0.000 OA
ATOM     11  O   UNL     1      71.782  78.390  48.401  0.00  0.00    +0.000 OA
ENDROOT
TORSDOF 0
ENDMDL
MODEL 9
REMARK VINA RESULT:    -5.484      5.818      6.745
REMARK INTER + INTRA:          -5.484
REMARK INTER:                  -5.484
REMARK INTRA:                   0.000
REMARK UNBOUND:                 0.000
ROOT
REMARK  Name = pregabalin
REMARK                            x       y       z     vdW  Elec       q    Type
REMARK                         _______ _______ _______ _____ _____    ______ ____
ATOM      1  C   UNL     1      61.258  62.969  72.850  0.00  0.00    +0.000 C 
ATOM      2  C   UNL     1      61.631  63.197  72.150  0.00  0.00    +0.000 C 
ATOM      3  C   UNL     1      61.622  62.695  71.495  0.00  0.00    +0.000 C 
ATOM      4  C   UNL     1      62.013  63.927  72.104  0.00  0.00    +0.000 C 
ATOM      5  C   UNL     1      62.385  64.155  71.404  0.00  0.00    +0.000 C 
ATOM      6  C   UNL     1      62.376  63.653  70.750  0.00  0.00    +0.000 C 
ATOM      7  N   UNL     1      62.748  63.880  70.050  0.00  0.00    +0.000 NA
ATOM      8  C   UNL     1      62.767  64.885  71.359  0.00  0.00    +0.000 C 
ATOM      9  C   UNL     1      63.140  65.113  70.659  0.00  0.00    +0.000 C 
ATOM     10  O   UNL     1      63.521  65.842  70.613  0.00  0.00    +0.000 OA
ATOM     11  O   UNL     1      63.130  64.611  70.004  0.00  0.00    +0.000 OA
ENDROOT
TORSDOF 0
ENDMDL
