MODEL 1
REMARK VINA RESULT:   -13.102      0.000      0.000
REMARK INTER + INTRA:         -13.102
REMARK INTER:                 -13.102
REMARK INTRA:                   0.000
REMARK UNBOUND:                 0.000
ROOT
REMARK  Name = pridinol
REMARK                            x       y       z     vdW  Elec       q    Type
REMARK                         _______ _______ _______ _____ _____    ______ ____
ATOM      1  O   UNL     1      62.426  62.577  65.897  0.00  0.00    +0.000 OA
ATOM      2  C   UNL     1      61.623  62.405  65.989  0.00  0.00    +0.000 C 
ATOM      3  C   UNL     1      61.626  62.784  66.722  0.00  0.00    +0.000 C 
ATOM      4  C   UNL     1      60.933  62.825  67.168  0.00  0.00    +0.000 C 
ATOM      5  N   UNL     1      60.936  63.204  67.901  0.00  0.00    +0.000 NA
ATOM      6  C   UNL     1      60.243  63.245  68.346  0.00  0.00    +0.000 C 
ATOM      7  C   UNL     1      60.245  63.623  69.078  0.00  0.00    +0.000 C 
ATOM      8  C   UNL     1      60.940  63.961  69.366  0.00  0.00    +0.000 C 
ATOM      9  C   UNL     1      61.633  63.920  68.921  0.00  0.00    +0.000 C 
ATOM     10  C   UNL     1      61.631  63.542  68.188  0.00  0.00    +0.000 C 
ATOM     11  C   UNL     1      61.621  62.027  65.257  0.00  0.00    +0.000 A 
ATOM     12  C   UNL     1      62.315  61.986  64.811  0.00  0.00    +0.000 A 
ATOM     13  C   UNL     1      62.312  61.607  64.078  0.00  0.00    +0.000 A 
ATOM     14  C   UNL     1      61.616  61.269  63.790  0.00  0.00    +0.000 A 
ATOM     15  C   UNL     1      60.923  61.310  64.236  0.00  0.00    +0.000 A 
ATOM     16  C   UNL     1      60.926  61.689  64.969  0.00  0.00    +0.000 A 
ATOM     17  C   UNL     1      60.823  62.234  66.080  0.00  0.00    +0.000 A 
ATOM     18  C   UNL     1      60.419  61.820  65.491  0.00  0.00    +0.000 A 
ATOM     19  C   UNL     1      59.617  61.649  65.583  0.00  0.00    +0.000 A 
ATOM     20  C   UNL     1      59.219  61.891  66.263  0.00  0.00    +0.000 A 
ATOM     21  C   UNL     1      59.622  62.305  66.852  0.00  0.00    +0.000 A 
ATOM     22  C   UNL     1      60.423  62.476  66.761  0.00  0.00    +0.000 A 
ENDROOT
TORSDOF 0
ENDMDL
MODEL 2
REMARK VINA RESULT:   -12.351      0.842      3.600
REMARK INTER + INTRA:         -12.351
REMARK INTER:                 -12.351
REMARK INTRA:                   0.000
REMARK UNBOUND:                 0.000
ROOT
REMARK  Name = pridinol
REMARK                            x       y       z     vdW  Elec       q    Type
REMARK                         _______ _______ _______ _____ _____    ______ ____
ATOM      1  O   UNL     1      62.123  63.130  67.223  0.00  0.00    +0.000 OA
ATOM      2  C   UNL     1      61.379  62.845  67.003  0.00  0.00    +0.000 C 
ATOM      3  C   UNL     1      61.692  62.576  66.289  0.00  0.00    +0.000 C 
ATOM      4  C   UNL     1      61.206  62.196  65.742  0.00  0.00    +0.000 C 
ATOM      5  N   UNL     1      61.519  61.927  65.028  0.00  0.00    +0.000 NA
ATOM      6  C   UNL     1      61.033  61.547  64.481  0.00  0.00    +0.000 C 
ATOM      7  C   UNL     1      61.346  61.278  63.767  0.00  0.00    +0.000 C 
ATOM      8  C   UNL     1      62.146  61.390  63.599  0.00  0.00    +0.000 C 
ATOM      9  C   UNL     1      62.632  61.770  64.146  0.00  0.00    +0.000 C 
ATOM     10  C   UNL     1      62.319  62.039  64.859  0.00  0.00    +0.000 C 
ATOM     11  C   UNL     1      61.066  63.113  67.717  0.00  0.00    +0.000 A 
ATOM     12  C   UNL     1      61.553  63.494  68.264  0.00  0.00    +0.000 A 
ATOM     13  C   UNL     1      61.240  63.763  68.979  0.00  0.00    +0.000 A 
ATOM     14  C   UNL     1      60.439  63.651  69.147  0.00  0.00    +0.000 A 
ATOM     15  C   UNL     1      59.953  63.270  68.599  0.00  0.00    +0.000 A 
ATOM     16  C   UNL     1      60.266  63.002  67.885  0.00  0.00    +0.000 A 
ATOM     17  C   UNL     1      60.637  62.561  66.785  0.00  0.00    +0.000 A 
ATOM     18  C   UNL     1      59.994  62.651  67.293  0.00  0.00    +0.000 A 
ATOM     19  C   UNL     1      59.251  62.367  67.075  0.00  0.00    +0.000 A 
ATOM     20  C   UNL     1      59.151  61.993  66.347  0.00  0.00    +0.000 A 
ATOM     21  C   UNL     1      59.793  61.902  65.837  0.00  0.00    +0.000 A 
ATOM     22  C   UNL     1      60.536  62.186  66.056  0.00  0.00    +0.000 A 
ENDROOT
TORSDOF 0
ENDMDL
MODEL 3
REMARK VINA RESULT:   -11.675      5.369      6.818
REMARK INTER + INTRA:         -11.675
REMARK INTER:                 -11.675
REMARK INTRA:                   0.000
REMARK UNBOUND:                 0.000
ROOT
REMARK  Name = pridinol
REMARK                            x       y       z     vdW  Elec       q    Type
REMARK                         _______ _______ _______ _____ _____    ______ ____
ATOM      1  O   UNL     1      64.185  66.908  71.967  0.00  0.00    +0.000 OA
ATOM      2  C   UNL     1      64.143  66.352  71.357  0.00  0.00    +0.000 C 
ATOM      3  C   UNL     1      63.516  65.978  71.741  0.00  0.00    +0.000 C 
ATOM      4  C   UNL     1      63.166  65.310  71.407  0.00  0.00    +0.000 C 
ATOM      5  N   UNL     1      62.539  64.936  71.791  0.00  0.00    +0.000 NA
ATOM      6  C   UNL     1      62.189  64.268  71.456  0.00  0.00    +0.000 C 
ATOM      7  C   UNL     1      61.563  63.894  71.840  0.00  0.00    +0.000 C 
ATOM      8  C   UNL     1      61.286  64.187  72.559  0.00  0.00    +0.000 C 
ATOM      9  C   UNL     1      61.636  64.855  72.894  0.00  0.00    +0.000 C 
ATOM     10  C   UNL     1      62.262  65.229  72.510  0.00  0.00    +0.000 C 
ATOM     11  C   UNL     1      64.769  66.726  70.973  0.00  0.00    +0.000 A 
ATOM     12  C   UNL     1      65.119  67.394  71.309  0.00  0.00    +0.000 A 
ATOM     13  C   UNL     1      65.746  67.769  70.924  0.00  0.00    +0.000 A 
ATOM     14  C   UNL     1      66.023  67.475  70.204  0.00  0.00    +0.000 A 
ATOM     15  C   UNL     1      65.673  66.807  69.870  0.00  0.00    +0.000 A 
ATOM     16  C   UNL     1      65.046  66.433  70.254  0.00  0.00    +0.000 A 
ATOM     17  C   UNL     1      64.101  65.798  70.749  0.00  0.00    +0.000 A 
ATOM     18  C   UNL     1      64.622  65.844  70.111  0.00  0.00    +0.000 A 
ATOM     19  C   UNL     1      64.581  65.289  69.502  0.00  0.00    +0.000 A 
ATOM     20  C   UNL     1      64.017  64.688  69.531  0.00  0.00    +0.000 A 
ATOM     21  C   UNL     1      63.495  64.640  70.168  0.00  0.00    +0.000 A 
ATOM     22  C   UNL     1      63.537  65.195  70.777  0.00  0.00    +0.000 A 
ENDROOT
TORSDOF 0
ENDMDL
MODEL 4
REMARK VINA RESULT:   -11.618      2.226      5.100
REMARK INTER + INTRA:         -11.618
REMARK INTER:                 -11.618
REMARK INTRA:                   0.000
REMARK UNBOUND:                 0.000
ROOT
REMARK  Name = pridinol
REMARK                            x       y       z     vdW  Elec       q    Type
REMARK                         _______ _______ _______ _____ _____    ______ ____
ATOM      1  O   UNL     1      61.665  64.280  70.308  0.00  0.00    +0.000 OA
ATOM      2  C   UNL     1      61.318  63.534  70.382  0.00  0.00    +0.000 C 
ATOM      3  C   UNL     1      61.223  63.496  69.564  0.00  0.00    +0.000 C 
ATOM      4  C   UNL     1      60.875  62.833  69.218  0.00  0.00    +0.000 C 
ATOM      5  N   UNL     1      60.780  62.795  68.400  0.00  0.00    +0.000 NA
ATOM      6  C   UNL     1      60.433  62.131  68.054  0.00  0.00    +0.000 C 
ATOM      7  C   UNL     1      60.338  62.094  67.237  0.00  0.00    +0.000 C 
ATOM      8  C   UNL     1      60.590  62.720  66.762  0.00  0.00    +0.000 C 
ATOM      9  C   UNL     1      60.938  63.383  67.108  0.00  0.00    +0.000 C 
ATOM     10  C   UNL     1      61.033  63.421  67.925  0.00  0.00    +0.000 C 
ATOM     11  C   UNL     1      61.413  63.572  71.200  0.00  0.00    +0.000 A 
ATOM     12  C   UNL     1      61.761  64.236  71.545  0.00  0.00    +0.000 A 
ATOM     13  C   UNL     1      61.856  64.274  72.364  0.00  0.00    +0.000 A 
ATOM     14  C   UNL     1      61.604  63.647  72.838  0.00  0.00    +0.000 A 
ATOM     15  C   UNL     1      61.256  62.983  72.493  0.00  0.00    +0.000 A 
ATOM     16  C   UNL     1      61.161  62.946  71.674  0.00  0.00    +0.000 A 
ATOM     17  C   UNL     1      60.972  62.790  70.457  0.00  0.00    +0.000 A 
ATOM     18  C   UNL     1      60.881  62.449  71.202  0.00  0.00    +0.000 A 
ATOM     19  C   UNL     1      60.534  61.704  71.277  0.00  0.00    +0.000 A 
ATOM     20  C   UNL     1      60.279  61.300  70.606  0.00  0.00    +0.000 A 
ATOM     21  C   UNL     1      60.370  61.639  69.859  0.00  0.00    +0.000 A 
ATOM     22  C   UNL     1      60.716  62.384  69.785  0.00  0.00    +0.000 A 
ENDROOT
TORSDOF 0
ENDMDL
MODEL 5
REMARK VINA RESULT:   -11.422      3.836      5.385
REMARK INTER + INTRA:         -11.422
REMARK INTER:                 -11.422
REMARK INTRA:                   0.000
REMARK UNBOUND:                 0.000
ROOT
REMARK  Name = pridinol
REMARK                            x       y       z     vdW  Elec       q    Type
REMARK                         _______ _______ _______ _____ _____    ______ ____
ATOM      1  O   UNL     1      61.764  63.431  69.557  0.00  0.00    +0.000 OA
ATOM      2  C   UNL     1      61.704  63.487  70.379  0.00  0.00    +0.000 C 
ATOM      3  C   UNL     1      62.191  64.153  70.369  0.00  0.00    +0.000 C 
ATOM      4  C   UNL     1      62.383  64.535  71.075  0.00  0.00    +0.000 C 
ATOM      5  N   UNL     1      62.870  65.201  71.065  0.00  0.00    +0.000 NA
ATOM      6  C   UNL     1      63.062  65.582  71.771  0.00  0.00    +0.000 C 
ATOM      7  C   UNL     1      63.548  66.247  71.761  0.00  0.00    +0.000 C 
ATOM      8  C   UNL     1      63.844  66.533  71.046  0.00  0.00    +0.000 C 
ATOM      9  C   UNL     1      63.652  66.151  70.340  0.00  0.00    +0.000 C 
ATOM     10  C   UNL     1      63.166  65.486  70.350  0.00  0.00    +0.000 C 
ATOM     11  C   UNL     1      61.218  62.822  70.389  0.00  0.00    +0.000 A 
ATOM     12  C   UNL     1      61.026  62.441  69.682  0.00  0.00    +0.000 A 
ATOM     13  C   UNL     1      60.539  61.775  69.692  0.00  0.00    +0.000 A 
ATOM     14  C   UNL     1      60.243  61.490  70.408  0.00  0.00    +0.000 A 
ATOM     15  C   UNL     1      60.435  61.871  71.114  0.00  0.00    +0.000 A 
ATOM     16  C   UNL     1      60.922  62.537  71.104  0.00  0.00    +0.000 A 
ATOM     17  C   UNL     1      61.644  63.543  71.199  0.00  0.00    +0.000 A 
ATOM     18  C   UNL     1      61.193  62.995  71.618  0.00  0.00    +0.000 A 
ATOM     19  C   UNL     1      61.133  63.051  72.439  0.00  0.00    +0.000 A 
ATOM     20  C   UNL     1      61.525  63.655  72.841  0.00  0.00    +0.000 A 
ATOM     21  C   UNL     1      61.977  64.204  72.422  0.00  0.00    +0.000 A 
ATOM     22  C   UNL     1      62.036  64.148  71.601  0.00  0.00    +0.000 A 
ENDROOT
TORSDOF 0
ENDMDL
MODEL 6
REMARK VINA RESULT:   -11.367      1.533      4.342
REMARK INTER + INTRA:         -11.367
REMARK INTER:                 -11.367
REMARK INTRA:                   0.000
REMARK UNBOUND:                 0.000
ROOT
REMARK  Name = pridinol
REMARK                            x       y       z     vdW  Elec       q    Type
REMARK                         _______ _______ _______ _____ _____    ______ ____
ATOM      1  O   UNL     1      60.590  61.293  69.124  0.00  0.00    +0.000 OA
ATOM      2  C   UNL     1      60.759  62.090  68.985  0.00  0.00    +0.000 C 
ATOM      3  C   UNL     1      60.950  61.913  68.202  0.00  0.00    +0.000 C 
ATOM      4  C   UNL     1      61.191  62.513  67.691  0.00  0.00    +0.000 C 
ATOM      5  N   UNL     1      61.382  62.337  66.908  0.00  0.00    +0.000 NA
ATOM      6  C   UNL     1      61.623  62.937  66.396  0.00  0.00    +0.000 C 
ATOM      7  C   UNL     1      61.814  62.761  65.614  0.00  0.00    +0.000 C 
ATOM      8  C   UNL     1      61.764  61.984  65.342  0.00  0.00    +0.000 C 
ATOM      9  C   UNL     1      61.523  61.384  65.854  0.00  0.00    +0.000 C 
ATOM     10  C   UNL     1      61.332  61.560  66.636  0.00  0.00    +0.000 C 
ATOM     11  C   UNL     1      60.568  62.266  69.767  0.00  0.00    +0.000 A 
ATOM     12  C   UNL     1      60.327  61.664  70.279  0.00  0.00    +0.000 A 
ATOM     13  C   UNL     1      60.135  61.841  71.062  0.00  0.00    +0.000 A 
ATOM     14  C   UNL     1      60.186  62.619  71.334  0.00  0.00    +0.000 A 
ATOM     15  C   UNL     1      60.427  63.219  70.823  0.00  0.00    +0.000 A 
ATOM     16  C   UNL     1      60.618  63.043  70.040  0.00  0.00    +0.000 A 
ATOM     17  C   UNL     1      60.927  62.884  68.847  0.00  0.00    +0.000 A 
ATOM     18  C   UNL     1      60.845  63.435  69.456  0.00  0.00    +0.000 A 
ATOM     19  C   UNL     1      61.013  64.231  69.317  0.00  0.00    +0.000 A 
ATOM     20  C   UNL     1      61.263  64.476  68.571  0.00  0.00    +0.000 A 
ATOM     21  C   UNL     1      61.344  63.926  67.961  0.00  0.00    +0.000 A 
ATOM     22  C   UNL     1      61.176  63.130  68.099  0.00  0.00    +0.000 A 
ENDROOT
TORSDOF 0
ENDMDL
MODEL 7
REMARK VINA RESULT:   -11.272      5.319      6.676
REMARK INTER + INTRA:         -11.272
REMARK INTER:                 -11.272
REMARK INTRA:                   0.000
REMARK UNBOUND:                 0.000
ROOT
REMARK  Name = pridinol
REMARK                            x       y       z     vdW  Elec       q    Type
REMARK                         _______ _______ _______ _____ _____    ______ ____
ATOM      1  O   UNL     1      62.838  63.872  70.598  0.00  0.00    +0.000 OA
ATOM      2  C   UNL     1      62.727  64.447  71.180  0.00  0.00    +0.000 C 
ATOM      3  C   UNL     1      63.334  64.898  70.851  0.00  0.00    +0.000 C 
ATOM      4  C   UNL     1      63.542  65.620  71.190  0.00  0.00    +0.000 C 
ATOM      5  N   UNL     1      64.150  66.071  70.861  0.00  0.00    +0.000 NA
ATOM      6  C   UNL     1      64.358  66.794  71.200  0.00  0.00    +0.000 C 
ATOM      7  C   UNL     1      64.965  67.244  70.871  0.00  0.00    +0.000 C 
ATOM      8  C   UNL     1      65.365  66.973  70.202  0.00  0.00    +0.000 C 
ATOM      9  C   UNL     1      65.157  66.250  69.864  0.00  0.00    +0.000 C 
ATOM     10  C   UNL     1      64.550  65.800  70.192  0.00  0.00    +0.000 C 
ATOM     11  C   UNL     1      62.120  63.996  71.509  0.00  0.00    +0.000 A 
ATOM     12  C   UNL     1      61.912  63.273  71.170  0.00  0.00    +0.000 A 
ATOM     13  C   UNL     1      61.305  62.822  71.499  0.00  0.00    +0.000 A 
ATOM     14  C   UNL     1      60.905  63.094  72.168  0.00  0.00    +0.000 A 
ATOM     15  C   UNL     1      61.113  63.817  72.507  0.00  0.00    +0.000 A 
ATOM     16  C   UNL     1      61.720  64.268  72.178  0.00  0.00    +0.000 A 
ATOM     17  C   UNL     1      62.616  65.020  71.762  0.00  0.00    +0.000 A 
ATOM     18  C   UNL     1      62.035  64.917  72.338  0.00  0.00    +0.000 A 
ATOM     19  C   UNL     1      61.924  65.492  72.920  0.00  0.00    +0.000 A 
ATOM     20  C   UNL     1      62.395  66.169  72.926  0.00  0.00    +0.000 A 
ATOM     21  C   UNL     1      62.976  66.273  72.350  0.00  0.00    +0.000 A 
ATOM     22  C   UNL     1      63.087  65.698  71.768  0.00  0.00    +0.000 A 
ENDROOT
TORSDOF 0
ENDMDL
MODEL 8
REMARK VINA RESULT:   -11.209      5.412      6.829
REMARK INTER + INTRA:         -11.209
REMARK INTER:                 -11.209
REMARK INTRA:                   0.000
REMARK UNBOUND:                 0.000
ROOT
REMARK  Name = pridinol
REMARK                            x       y       z     vdW  Elec       q    Type
REMARK                         _______ _______ _______ _____ _____    ______ ____
ATOM      1  O   UNL     1      64.050  64.944  70.362  0.00  0.00    +0.000 OA
ATOM      2  C   UNL     1      63.709  65.362  70.988  0.00  0.00    +0.000 C 
ATOM      3  C   UNL     1      63.165  64.752  71.099  0.00  0.00    +0.000 C 
ATOM      4  C   UNL     1      62.598  64.808  71.695  0.00  0.00    +0.000 C 
ATOM      5  N   UNL     1      62.054  64.198  71.807  0.00  0.00    +0.000 NA
ATOM      6  C   UNL     1      61.487  64.255  72.403  0.00  0.00    +0.000 C 
ATOM      7  C   UNL     1      60.944  63.645  72.514  0.00  0.00    +0.000 C 
ATOM      8  C   UNL     1      60.966  62.978  72.030  0.00  0.00    +0.000 C 
ATOM      9  C   UNL     1      61.533  62.922  71.433  0.00  0.00    +0.000 C 
ATOM     10  C   UNL     1      62.076  63.532  71.322  0.00  0.00    +0.000 C 
ATOM     11  C   UNL     1      64.253  65.972  70.876  0.00  0.00    +0.000 A 
ATOM     12  C   UNL     1      64.820  65.915  70.279  0.00  0.00    +0.000 A 
ATOM     13  C   UNL     1      65.364  66.525  70.168  0.00  0.00    +0.000 A 
ATOM     14  C   UNL     1      65.342  67.193  70.653  0.00  0.00    +0.000 A 
ATOM     15  C   UNL     1      64.775  67.249  71.250  0.00  0.00    +0.000 A 
ATOM     16  C   UNL     1      64.230  66.639  71.361  0.00  0.00    +0.000 A 
ATOM     17  C   UNL     1      63.369  65.780  71.611  0.00  0.00    +0.000 A 
ATOM     18  C   UNL     1      63.670  66.517  71.828  0.00  0.00    +0.000 A 
ATOM     19  C   UNL     1      63.329  66.934  72.453  0.00  0.00    +0.000 A 
ATOM     20  C   UNL     1      62.688  66.615  72.861  0.00  0.00    +0.000 A 
ATOM     21  C   UNL     1      62.387  65.878  72.646  0.00  0.00    +0.000 A 
ATOM     22  C   UNL     1      62.727  65.460  72.021  0.00  0.00    +0.000 A 
ENDROOT
TORSDOF 0
ENDMDL
MODEL 9
REMARK VINA RESULT:   -11.013      1.967      3.503
REMARK INTER + INTRA:         -11.013
REMARK INTER:                 -11.013
REMARK INTRA:                   0.000
REMARK UNBOUND:                 0.000
ROOT
REMARK  Name = pridinol
REMARK                            x       y       z     vdW  Elec       q    Type
REMARK                         _______ _______ _______ _____ _____    ______ ____
ATOM      1  O   UNL     1      61.469  64.027  68.154  0.00  0.00    +0.000 OA
ATOM      2  C   UNL     1      61.254  63.518  68.769  0.00  0.00    +0.000 C 
ATOM      3  C   UNL     1      61.633  64.012  69.310  0.00  0.00    +0.000 C 
ATOM      4  C   UNL     1      61.637  63.820  70.112  0.00  0.00    +0.000 C 
ATOM      5  N   UNL     1      62.015  64.314  70.654  0.00  0.00    +0.000 NA
ATOM      6  C   UNL     1      62.019  64.122  71.456  0.00  0.00    +0.000 C 
ATOM      7  C   UNL     1      62.397  64.615  71.996  0.00  0.00    +0.000 C 
ATOM      8  C   UNL     1      62.773  65.302  71.736  0.00  0.00    +0.000 C 
ATOM      9  C   UNL     1      62.769  65.494  70.934  0.00  0.00    +0.000 C 
ATOM     10  C   UNL     1      62.391  65.001  70.394  0.00  0.00    +0.000 C 
ATOM     11  C   UNL     1      60.876  63.025  68.228  0.00  0.00    +0.000 A 
ATOM     12  C   UNL     1      60.872  63.218  67.425  0.00  0.00    +0.000 A 
ATOM     13  C   UNL     1      60.494  62.724  66.884  0.00  0.00    +0.000 A 
ATOM     14  C   UNL     1      60.118  62.036  67.144  0.00  0.00    +0.000 A 
ATOM     15  C   UNL     1      60.122  61.844  67.946  0.00  0.00    +0.000 A 
ATOM     16  C   UNL     1      60.501  62.338  68.488  0.00  0.00    +0.000 A 
ATOM     17  C   UNL     1      61.040  63.011  69.382  0.00  0.00    +0.000 A 
ATOM     18  C   UNL     1      60.605  62.329  69.220  0.00  0.00    +0.000 A 
ATOM     19  C   UNL     1      60.390  61.821  69.834  0.00  0.00    +0.000 A 
ATOM     20  C   UNL     1      60.611  61.995  70.609  0.00  0.00    +0.000 A 
ATOM     21  C   UNL     1      61.046  62.677  70.772  0.00  0.00    +0.000 A 
ATOM     22  C   UNL     1      61.261  63.185  70.158  0.00  0.00    +0.000 A 
ENDROOT
TORSDOF 0
ENDMDL
