MODEL 1
REMARK VINA RESULT:    -9.165      0.000      0.000
REMARK INTER + INTRA:          -9.165
REMARK INTER:                  -9.165
REMARK INTRA:                   0.000
REMARK UNBOUND:                 0.000
ROOT
REMARK  Name = procaine
REMARK                            x       y       z     vdW  Elec       q    Type
REMARK                         _______ _______ _______ _____ _____    ______ ____
ATOM      1  C   UNL     1      62.774  61.621  63.445  0.00  0.00    +0.000 C 
ATOM      2  C   UNL     1      61.992  61.501  63.677  0.00  0.00    +0.000 C 
ATOM      3  N   UNL     1      61.737  61.759  64.418  0.00  0.00    +0.000 NA
ATOM      4  C   UNL     1      62.265  62.138  64.927  0.00  0.00    +0.000 C 
ATOM      5  C   UNL     1      62.010  62.396  65.668  0.00  0.00    +0.000 C 
ATOM      6  C   UNL     1      60.955  61.640  64.650  0.00  0.00    +0.000 C 
ATOM      7  C   UNL     1      60.700  61.898  65.390  0.00  0.00    +0.000 C 
ATOM      8  O   UNL     1      59.917  61.778  65.622  0.00  0.00    +0.000 OA
ATOM      9  C   UNL     1      59.662  62.036  66.363  0.00  0.00    +0.000 C 
ATOM     10  O   UNL     1      58.880  61.916  66.595  0.00  0.00    +0.000 OA
ATOM     11  C   UNL     1      60.190  62.415  66.873  0.00  0.00    +0.000 A 
ATOM     12  C   UNL     1      60.973  62.535  66.640  0.00  0.00    +0.000 A 
ATOM     13  C   UNL     1      61.500  62.913  67.149  0.00  0.00    +0.000 A 
ATOM     14  C   UNL     1      61.245  63.171  67.891  0.00  0.00    +0.000 A 
ATOM     15  N   UNL     1      61.772  63.549  68.399  0.00  0.00    +0.000 NA
ATOM     16  C   UNL     1      60.463  63.051  68.122  0.00  0.00    +0.000 A 
ATOM     17  C   UNL     1      59.935  62.673  67.613  0.00  0.00    +0.000 A 
ENDROOT
TORSDOF 0
ENDMDL
MODEL 2
REMARK VINA RESULT:    -8.826      0.897      3.398
REMARK INTER + INTRA:          -8.826
REMARK INTER:                  -8.826
REMARK INTRA:                   0.000
REMARK UNBOUND:                 0.000
ROOT
REMARK  Name = procaine
REMARK                            x       y       z     vdW  Elec       q    Type
REMARK                         _______ _______ _______ _____ _____    ______ ____
ATOM      1  C   UNL     1      61.356  64.283  69.680  0.00  0.00    +0.000 C 
ATOM      2  C   UNL     1      60.687  63.987  69.299  0.00  0.00    +0.000 C 
ATOM      3  N   UNL     1      60.765  63.576  68.588  0.00  0.00    +0.000 NA
ATOM      4  C   UNL     1      61.514  63.460  68.258  0.00  0.00    +0.000 C 
ATOM      5  C   UNL     1      61.592  63.049  67.547  0.00  0.00    +0.000 C 
ATOM      6  C   UNL     1      60.097  63.280  68.207  0.00  0.00    +0.000 C 
ATOM      7  C   UNL     1      60.175  62.869  67.496  0.00  0.00    +0.000 C 
ATOM      8  O   UNL     1      59.506  62.572  67.114  0.00  0.00    +0.000 OA
ATOM      9  C   UNL     1      59.584  62.161  66.403  0.00  0.00    +0.000 C 
ATOM     10  O   UNL     1      58.915  61.865  66.022  0.00  0.00    +0.000 OA
ATOM     11  C   UNL     1      60.332  62.045  66.074  0.00  0.00    +0.000 A 
ATOM     12  C   UNL     1      61.001  62.341  66.455  0.00  0.00    +0.000 A 
ATOM     13  C   UNL     1      61.749  62.226  66.126  0.00  0.00    +0.000 A 
ATOM     14  C   UNL     1      61.827  61.814  65.414  0.00  0.00    +0.000 A 
ATOM     15  N   UNL     1      62.574  61.699  65.085  0.00  0.00    +0.000 NA
ATOM     16  C   UNL     1      61.158  61.519  65.034  0.00  0.00    +0.000 A 
ATOM     17  C   UNL     1      60.410  61.634  65.363  0.00  0.00    +0.000 A 
ENDROOT
TORSDOF 0
ENDMDL
MODEL 3
REMARK VINA RESULT:    -8.332      3.505      4.947
REMARK INTER + INTRA:          -8.332
REMARK INTER:                  -8.332
REMARK INTRA:                   0.000
REMARK UNBOUND:                 0.000
ROOT
REMARK  Name = procaine
REMARK                            x       y       z     vdW  Elec       q    Type
REMARK                         _______ _______ _______ _____ _____    ______ ____
ATOM      1  C   UNL     1      59.822  62.927  67.668  0.00  0.00    +0.000 C 
ATOM      2  C   UNL     1      60.132  62.338  68.155  0.00  0.00    +0.000 C 
ATOM      3  N   UNL     1      60.364  62.519  68.926  0.00  0.00    +0.000 NA
ATOM      4  C   UNL     1      60.286  63.291  69.210  0.00  0.00    +0.000 C 
ATOM      5  C   UNL     1      60.517  63.472  69.980  0.00  0.00    +0.000 C 
ATOM      6  C   UNL     1      60.673  61.930  69.413  0.00  0.00    +0.000 C 
ATOM      7  C   UNL     1      60.905  62.111  70.183  0.00  0.00    +0.000 C 
ATOM      8  O   UNL     1      61.214  61.522  70.671  0.00  0.00    +0.000 OA
ATOM      9  C   UNL     1      61.446  61.703  71.442  0.00  0.00    +0.000 C 
ATOM     10  O   UNL     1      61.756  61.115  71.929  0.00  0.00    +0.000 OA
ATOM     11  C   UNL     1      61.368  62.475  71.726  0.00  0.00    +0.000 A 
ATOM     12  C   UNL     1      61.059  63.064  71.238  0.00  0.00    +0.000 A 
ATOM     13  C   UNL     1      60.981  63.835  71.521  0.00  0.00    +0.000 A 
ATOM     14  C   UNL     1      61.212  64.017  72.293  0.00  0.00    +0.000 A 
ATOM     15  N   UNL     1      61.135  64.787  72.576  0.00  0.00    +0.000 NA
ATOM     16  C   UNL     1      61.522  63.427  72.779  0.00  0.00    +0.000 A 
ATOM     17  C   UNL     1      61.600  62.656  72.496  0.00  0.00    +0.000 A 
ENDROOT
TORSDOF 0
ENDMDL
MODEL 4
REMARK VINA RESULT:    -8.260      2.424      3.362
REMARK INTER + INTRA:          -8.260
REMARK INTER:                  -8.260
REMARK INTRA:                   0.000
REMARK UNBOUND:                 0.000
ROOT
REMARK  Name = procaine
REMARK                            x       y       z     vdW  Elec       q    Type
REMARK                         _______ _______ _______ _____ _____    ______ ____
ATOM      1  C   UNL     1      61.117  62.002  65.699  0.00  0.00    +0.000 C 
ATOM      2  C   UNL     1      61.368  62.640  66.157  0.00  0.00    +0.000 C 
ATOM      3  N   UNL     1      61.256  62.630  66.975  0.00  0.00    +0.000 NA
ATOM      4  C   UNL     1      60.893  61.981  67.334  0.00  0.00    +0.000 C 
ATOM      5  C   UNL     1      60.781  61.971  68.151  0.00  0.00    +0.000 C 
ATOM      6  C   UNL     1      61.507  63.268  67.433  0.00  0.00    +0.000 C 
ATOM      7  C   UNL     1      61.396  63.258  68.250  0.00  0.00    +0.000 C 
ATOM      8  O   UNL     1      61.647  63.896  68.709  0.00  0.00    +0.000 OA
ATOM      9  C   UNL     1      61.536  63.886  69.527  0.00  0.00    +0.000 C 
ATOM     10  O   UNL     1      61.787  64.523  69.985  0.00  0.00    +0.000 OA
ATOM     11  C   UNL     1      61.172  63.237  69.886  0.00  0.00    +0.000 A 
ATOM     12  C   UNL     1      60.921  62.599  69.427  0.00  0.00    +0.000 A 
ATOM     13  C   UNL     1      60.558  61.951  69.785  0.00  0.00    +0.000 A 
ATOM     14  C   UNL     1      60.446  61.941  70.603  0.00  0.00    +0.000 A 
ATOM     15  N   UNL     1      60.083  61.293  70.962  0.00  0.00    +0.000 NA
ATOM     16  C   UNL     1      60.698  62.579  71.061  0.00  0.00    +0.000 A 
ATOM     17  C   UNL     1      61.061  63.227  70.703  0.00  0.00    +0.000 A 
ENDROOT
TORSDOF 0
ENDMDL
MODEL 5
REMARK VINA RESULT:    -8.120      3.837      5.392
REMARK INTER + INTRA:          -8.120
REMARK INTER:                  -8.120
REMARK INTRA:                   0.000
REMARK UNBOUND:                 0.000
ROOT
REMARK  Name = procaine
REMARK                            x       y       z     vdW  Elec       q    Type
REMARK                         _______ _______ _______ _____ _____    ______ ____
ATOM      1  C   UNL     1      59.517  67.094  69.468  0.00  0.00    +0.000 C 
ATOM      2  C   UNL     1      59.582  66.625  70.143  0.00  0.00    +0.000 C 
ATOM      3  N   UNL     1      59.766  65.824  70.073  0.00  0.00    +0.000 NA
ATOM      4  C   UNL     1      59.886  65.492  69.326  0.00  0.00    +0.000 C 
ATOM      5  C   UNL     1      60.070  64.691  69.255  0.00  0.00    +0.000 C 
ATOM      6  C   UNL     1      59.831  65.355  70.747  0.00  0.00    +0.000 C 
ATOM      7  C   UNL     1      60.015  64.554  70.677  0.00  0.00    +0.000 C 
ATOM      8  O   UNL     1      60.081  64.084  71.352  0.00  0.00    +0.000 OA
ATOM      9  C   UNL     1      60.265  63.283  71.282  0.00  0.00    +0.000 C 
ATOM     10  O   UNL     1      60.330  62.813  71.956  0.00  0.00    +0.000 OA
ATOM     11  C   UNL     1      60.384  62.951  70.535  0.00  0.00    +0.000 A 
ATOM     12  C   UNL     1      60.319  63.421  69.860  0.00  0.00    +0.000 A 
ATOM     13  C   UNL     1      60.438  63.089  69.114  0.00  0.00    +0.000 A 
ATOM     14  C   UNL     1      60.623  62.288  69.043  0.00  0.00    +0.000 A 
ATOM     15  N   UNL     1      60.742  61.956  68.298  0.00  0.00    +0.000 NA
ATOM     16  C   UNL     1      60.688  61.819  69.718  0.00  0.00    +0.000 A 
ATOM     17  C   UNL     1      60.568  62.150  70.464  0.00  0.00    +0.000 A 
ENDROOT
TORSDOF 0
ENDMDL
MODEL 6
REMARK VINA RESULT:    -8.106      4.212      5.161
REMARK INTER + INTRA:          -8.106
REMARK INTER:                  -8.106
REMARK INTRA:                   0.000
REMARK UNBOUND:                 0.000
ROOT
REMARK  Name = procaine
REMARK                            x       y       z     vdW  Elec       q    Type
REMARK                         _______ _______ _______ _____ _____    ______ ____
ATOM      1  C   UNL     1      59.760  66.594  69.532  0.00  0.00    +0.000 C 
ATOM      2  C   UNL     1      59.748  65.848  69.183  0.00  0.00    +0.000 C 
ATOM      3  N   UNL     1      60.012  65.189  69.604  0.00  0.00    +0.000 NA
ATOM      4  C   UNL     1      60.289  65.279  70.377  0.00  0.00    +0.000 C 
ATOM      5  C   UNL     1      60.553  64.621  70.799  0.00  0.00    +0.000 C 
ATOM      6  C   UNL     1      60.000  64.443  69.255  0.00  0.00    +0.000 C 
ATOM      7  C   UNL     1      60.264  63.785  69.676  0.00  0.00    +0.000 C 
ATOM      8  O   UNL     1      60.252  63.038  69.327  0.00  0.00    +0.000 OA
ATOM      9  C   UNL     1      60.516  62.380  69.748  0.00  0.00    +0.000 C 
ATOM     10  O   UNL     1      60.504  61.633  69.399  0.00  0.00    +0.000 OA
ATOM     11  C   UNL     1      60.793  62.469  70.521  0.00  0.00    +0.000 A 
ATOM     12  C   UNL     1      60.805  63.217  70.871  0.00  0.00    +0.000 A 
ATOM     13  C   UNL     1      61.082  63.306  71.643  0.00  0.00    +0.000 A 
ATOM     14  C   UNL     1      61.347  62.648  72.065  0.00  0.00    +0.000 A 
ATOM     15  N   UNL     1      61.623  62.737  72.837  0.00  0.00    +0.000 NA
ATOM     16  C   UNL     1      61.334  61.901  71.715  0.00  0.00    +0.000 A 
ATOM     17  C   UNL     1      61.057  61.812  70.943  0.00  0.00    +0.000 A 
ENDROOT
TORSDOF 0
ENDMDL
MODEL 7
REMARK VINA RESULT:    -8.056      4.651      5.727
REMARK INTER + INTRA:          -8.056
REMARK INTER:                  -8.056
REMARK INTRA:                   0.000
REMARK UNBOUND:                 0.000
ROOT
REMARK  Name = procaine
REMARK                            x       y       z     vdW  Elec       q    Type
REMARK                         _______ _______ _______ _____ _____    ______ ____
ATOM      1  C   UNL     1      63.931  66.110  69.908  0.00  0.00    +0.000 C 
ATOM      2  C   UNL     1      63.678  65.796  70.627  0.00  0.00    +0.000 C 
ATOM      3  N   UNL     1      63.155  65.158  70.638  0.00  0.00    +0.000 NA
ATOM      4  C   UNL     1      62.884  64.834  69.928  0.00  0.00    +0.000 C 
ATOM      5  C   UNL     1      62.361  64.197  69.939  0.00  0.00    +0.000 C 
ATOM      6  C   UNL     1      62.902  64.844  71.357  0.00  0.00    +0.000 C 
ATOM      7  C   UNL     1      62.378  64.207  71.368  0.00  0.00    +0.000 C 
ATOM      8  O   UNL     1      62.125  63.893  72.087  0.00  0.00    +0.000 OA
ATOM      9  C   UNL     1      61.601  63.255  72.098  0.00  0.00    +0.000 C 
ATOM     10  O   UNL     1      61.348  62.941  72.817  0.00  0.00    +0.000 OA
ATOM     11  C   UNL     1      61.330  62.931  71.388  0.00  0.00    +0.000 A 
ATOM     12  C   UNL     1      61.584  63.246  70.669  0.00  0.00    +0.000 A 
ATOM     13  C   UNL     1      61.314  62.922  69.959  0.00  0.00    +0.000 A 
ATOM     14  C   UNL     1      60.790  62.284  69.970  0.00  0.00    +0.000 A 
ATOM     15  N   UNL     1      60.519  61.961  69.261  0.00  0.00    +0.000 NA
ATOM     16  C   UNL     1      60.537  61.971  70.690  0.00  0.00    +0.000 A 
ATOM     17  C   UNL     1      60.807  62.294  71.399  0.00  0.00    +0.000 A 
ENDROOT
TORSDOF 0
ENDMDL
MODEL 8
REMARK VINA RESULT:    -8.001      5.880      7.282
REMARK INTER + INTRA:          -8.001
REMARK INTER:                  -8.001
REMARK INTRA:                   0.000
REMARK UNBOUND:                 0.000
ROOT
REMARK  Name = procaine
REMARK                            x       y       z     vdW  Elec       q    Type
REMARK                         _______ _______ _______ _____ _____    ______ ____
ATOM      1  C   UNL     1      66.498  67.634  69.858  0.00  0.00    +0.000 C 
ATOM      2  C   UNL     1      66.024  67.683  70.530  0.00  0.00    +0.000 C 
ATOM      3  N   UNL     1      65.401  67.152  70.636  0.00  0.00    +0.000 NA
ATOM      4  C   UNL     1      65.253  66.571  70.068  0.00  0.00    +0.000 C 
ATOM      5  C   UNL     1      64.632  66.040  70.174  0.00  0.00    +0.000 C 
ATOM      6  C   UNL     1      64.927  67.201  71.308  0.00  0.00    +0.000 C 
ATOM      7  C   UNL     1      64.305  66.671  71.414  0.00  0.00    +0.000 C 
ATOM      8  O   UNL     1      63.829  66.719  72.087  0.00  0.00    +0.000 OA
ATOM      9  C   UNL     1      63.207  66.188  72.193  0.00  0.00    +0.000 C 
ATOM     10  O   UNL     1      62.732  66.238  72.865  0.00  0.00    +0.000 OA
ATOM     11  C   UNL     1      63.059  65.607  71.625  0.00  0.00    +0.000 A 
ATOM     12  C   UNL     1      63.534  65.558  70.952  0.00  0.00    +0.000 A 
ATOM     13  C   UNL     1      63.387  64.978  70.385  0.00  0.00    +0.000 A 
ATOM     14  C   UNL     1      62.764  64.446  70.490  0.00  0.00    +0.000 A 
ATOM     15  N   UNL     1      62.617  63.866  69.924  0.00  0.00    +0.000 NA
ATOM     16  C   UNL     1      62.290  64.496  71.163  0.00  0.00    +0.000 A 
ATOM     17  C   UNL     1      62.437  65.076  71.731  0.00  0.00    +0.000 A 
ENDROOT
TORSDOF 0
ENDMDL
MODEL 9
REMARK VINA RESULT:    -7.967      5.541      6.819
REMARK INTER + INTRA:          -7.967
REMARK INTER:                  -7.967
REMARK INTRA:                   0.000
REMARK UNBOUND:                 0.000
ROOT
REMARK  Name = procaine
REMARK                            x       y       z     vdW  Elec       q    Type
REMARK                         _______ _______ _______ _____ _____    ______ ____
ATOM      1  C   UNL     1      61.122  63.422  72.004  0.00  0.00    +0.000 C 
ATOM      2  C   UNL     1      61.630  63.391  71.356  0.00  0.00    +0.000 C 
ATOM      3  N   UNL     1      62.213  63.967  71.259  0.00  0.00    +0.000 NA
ATOM      4  C   UNL     1      62.288  64.575  71.812  0.00  0.00    +0.000 C 
ATOM      5  C   UNL     1      62.870  65.151  71.716  0.00  0.00    +0.000 C 
ATOM      6  C   UNL     1      62.720  63.936  70.610  0.00  0.00    +0.000 C 
ATOM      7  C   UNL     1      63.302  64.511  70.513  0.00  0.00    +0.000 C 
ATOM      8  O   UNL     1      63.811  64.481  69.864  0.00  0.00    +0.000 OA
ATOM      9  C   UNL     1      64.393  65.057  69.767  0.00  0.00    +0.000 C 
ATOM     10  O   UNL     1      64.901  65.025  69.118  0.00  0.00    +0.000 OA
ATOM     11  C   UNL     1      64.468  65.665  70.321  0.00  0.00    +0.000 A 
ATOM     12  C   UNL     1      63.960  65.696  70.970  0.00  0.00    +0.000 A 
ATOM     13  C   UNL     1      64.035  66.303  71.523  0.00  0.00    +0.000 A 
ATOM     14  C   UNL     1      64.618  66.880  71.427  0.00  0.00    +0.000 A 
ATOM     15  N   UNL     1      64.693  67.487  71.979  0.00  0.00    +0.000 NA
ATOM     16  C   UNL     1      65.125  66.848  70.777  0.00  0.00    +0.000 A 
ATOM     17  C   UNL     1      65.051  66.241  70.224  0.00  0.00    +0.000 A 
ENDROOT
TORSDOF 0
ENDMDL
