MODEL 1
REMARK VINA RESULT:    -9.240      0.000      0.000
REMARK INTER + INTRA:          -9.240
REMARK INTER:                  -9.240
REMARK INTRA:                   0.000
REMARK UNBOUND:                 0.000
ROOT
REMARK  Name = proguanil
REMARK                            x       y       z     vdW  Elec       q    Type
REMARK                         _______ _______ _______ _____ _____    ______ ____
ATOM      1  C   UNL     1      60.392  63.481  70.263  0.00  0.00    +0.000 C 
ATOM      2  C   UNL     1      60.819  63.424  69.559  0.00  0.00    +0.000 C 
ATOM      3  C   UNL     1      61.533  63.829  69.476  0.00  0.00    +0.000 C 
ATOM      4  N   UNL     1      60.531  62.962  68.940  0.00  0.00    +0.000 NA
ATOM      5  C   UNL     1      60.959  62.905  68.235  0.00  0.00    +0.000 C 
ATOM      6  N   UNL     1      61.672  63.310  68.152  0.00  0.00    +0.000 NA
ATOM      7  N   UNL     1      60.671  62.443  67.616  0.00  0.00    +0.000 NA
ATOM      8  C   UNL     1      61.098  62.386  66.911  0.00  0.00    +0.000 C 
ATOM      9  N   UNL     1      61.812  62.791  66.828  0.00  0.00    +0.000 NA
ATOM     10  N   UNL     1      60.810  61.923  66.292  0.00  0.00    +0.000 NA
ATOM     11  C   UNL     1      61.237  61.866  65.587  0.00  0.00    +0.000 A 
ATOM     12  C   UNL     1      60.949  61.404  64.968  0.00  0.00    +0.000 A 
ATOM     13  C   UNL     1      61.377  61.347  64.263  0.00  0.00    +0.000 A 
ATOM     14  C   UNL     1      62.090  61.752  64.180  0.00  0.00    +0.000 A 
ATOM     15 CL   UNL     1      62.517  61.695  63.476  0.00  0.00    +0.000 Cl
ATOM     16  C   UNL     1      62.377  62.214  64.800  0.00  0.00    +0.000 A 
ATOM     17  C   UNL     1      61.951  62.271  65.504  0.00  0.00    +0.000 A 
ENDROOT
TORSDOF 0
ENDMDL
MODEL 2
REMARK VINA RESULT:    -8.816      2.122      4.587
REMARK INTER + INTRA:          -8.816
REMARK INTER:                  -8.816
REMARK INTRA:                   0.000
REMARK UNBOUND:                 0.000
ROOT
REMARK  Name = proguanil
REMARK                            x       y       z     vdW  Elec       q    Type
REMARK                         _______ _______ _______ _____ _____    ______ ____
ATOM      1  C   UNL     1      62.370  62.400  64.215  0.00  0.00    +0.000 C 
ATOM      2  C   UNL     1      62.102  62.146  64.952  0.00  0.00    +0.000 C 
ATOM      3  C   UNL     1      61.969  61.344  65.090  0.00  0.00    +0.000 C 
ATOM      4  N   UNL     1      61.965  62.696  65.552  0.00  0.00    +0.000 NA
ATOM      5  C   UNL     1      61.696  62.443  66.290  0.00  0.00    +0.000 C 
ATOM      6  N   UNL     1      61.564  61.640  66.428  0.00  0.00    +0.000 NA
ATOM      7  N   UNL     1      61.560  62.992  66.890  0.00  0.00    +0.000 NA
ATOM      8  C   UNL     1      61.291  62.739  67.628  0.00  0.00    +0.000 C 
ATOM      9  N   UNL     1      61.158  61.936  67.766  0.00  0.00    +0.000 NA
ATOM     10  N   UNL     1      61.154  63.289  68.228  0.00  0.00    +0.000 NA
ATOM     11  C   UNL     1      60.885  63.035  68.966  0.00  0.00    +0.000 A 
ATOM     12  C   UNL     1      60.749  63.585  69.566  0.00  0.00    +0.000 A 
ATOM     13  C   UNL     1      60.480  63.331  70.304  0.00  0.00    +0.000 A 
ATOM     14  C   UNL     1      60.348  62.529  70.442  0.00  0.00    +0.000 A 
ATOM     15 CL   UNL     1      60.079  62.276  71.179  0.00  0.00    +0.000 Cl
ATOM     16  C   UNL     1      60.484  61.980  69.841  0.00  0.00    +0.000 A 
ATOM     17  C   UNL     1      60.753  62.233  69.104  0.00  0.00    +0.000 A 
ENDROOT
TORSDOF 0
ENDMDL
MODEL 3
REMARK VINA RESULT:    -8.298      5.040      6.611
REMARK INTER + INTRA:          -8.298
REMARK INTER:                  -8.298
REMARK INTRA:                   0.000
REMARK UNBOUND:                 0.000
ROOT
REMARK  Name = proguanil
REMARK                            x       y       z     vdW  Elec       q    Type
REMARK                         _______ _______ _______ _____ _____    ______ ____
ATOM      1  C   UNL     1      61.047  63.371  71.986  0.00  0.00    +0.000 C 
ATOM      2  C   UNL     1      61.614  63.752  71.523  0.00  0.00    +0.000 C 
ATOM      3  C   UNL     1      61.702  63.550  70.728  0.00  0.00    +0.000 C 
ATOM      4  N   UNL     1      62.093  64.334  71.857  0.00  0.00    +0.000 NA
ATOM      5  C   UNL     1      62.661  64.716  71.395  0.00  0.00    +0.000 C 
ATOM      6  N   UNL     1      62.749  64.514  70.600  0.00  0.00    +0.000 NA
ATOM      7  N   UNL     1      63.140  65.298  71.729  0.00  0.00    +0.000 NA
ATOM      8  C   UNL     1      63.708  65.680  71.267  0.00  0.00    +0.000 C 
ATOM      9  N   UNL     1      63.795  65.478  70.471  0.00  0.00    +0.000 NA
ATOM     10  N   UNL     1      64.187  66.262  71.600  0.00  0.00    +0.000 NA
ATOM     11  C   UNL     1      64.755  66.644  71.138  0.00  0.00    +0.000 A 
ATOM     12  C   UNL     1      65.234  67.226  71.472  0.00  0.00    +0.000 A 
ATOM     13  C   UNL     1      65.802  67.608  71.010  0.00  0.00    +0.000 A 
ATOM     14  C   UNL     1      65.889  67.406  70.214  0.00  0.00    +0.000 A 
ATOM     15 CL   UNL     1      66.456  67.788  69.753  0.00  0.00    +0.000 Cl
ATOM     16  C   UNL     1      65.409  66.824  69.882  0.00  0.00    +0.000 A 
ATOM     17  C   UNL     1      64.842  66.442  70.343  0.00  0.00    +0.000 A 
ENDROOT
TORSDOF 0
ENDMDL
MODEL 4
REMARK VINA RESULT:    -8.216      1.791      2.682
REMARK INTER + INTRA:          -8.216
REMARK INTER:                  -8.216
REMARK INTRA:                   0.000
REMARK UNBOUND:                 0.000
ROOT
REMARK  Name = proguanil
REMARK                            x       y       z     vdW  Elec       q    Type
REMARK                         _______ _______ _______ _____ _____    ______ ____
ATOM      1  C   UNL     1      63.328  65.184  71.099  0.00  0.00    +0.000 C 
ATOM      2  C   UNL     1      62.681  64.863  70.700  0.00  0.00    +0.000 C 
ATOM      3  C   UNL     1      61.934  64.872  71.050  0.00  0.00    +0.000 C 
ATOM      4  N   UNL     1      62.783  64.532  69.951  0.00  0.00    +0.000 NA
ATOM      5  C   UNL     1      62.136  64.211  69.551  0.00  0.00    +0.000 C 
ATOM      6  N   UNL     1      61.389  64.220  69.901  0.00  0.00    +0.000 NA
ATOM      7  N   UNL     1      62.238  63.880  68.803  0.00  0.00    +0.000 NA
ATOM      8  C   UNL     1      61.591  63.559  68.403  0.00  0.00    +0.000 C 
ATOM      9  N   UNL     1      60.844  63.568  68.752  0.00  0.00    +0.000 NA
ATOM     10  N   UNL     1      61.693  63.228  67.654  0.00  0.00    +0.000 NA
ATOM     11  C   UNL     1      61.046  62.907  67.254  0.00  0.00    +0.000 A 
ATOM     12  C   UNL     1      61.147  62.576  66.505  0.00  0.00    +0.000 A 
ATOM     13  C   UNL     1      60.501  62.255  66.105  0.00  0.00    +0.000 A 
ATOM     14  C   UNL     1      59.753  62.264  66.455  0.00  0.00    +0.000 A 
ATOM     15 CL   UNL     1      59.108  61.943  66.055  0.00  0.00    +0.000 Cl
ATOM     16  C   UNL     1      59.653  62.595  67.204  0.00  0.00    +0.000 A 
ATOM     17  C   UNL     1      60.298  62.916  67.603  0.00  0.00    +0.000 A 
ENDROOT
TORSDOF 0
ENDMDL
MODEL 5
REMARK VINA RESULT:    -8.099      2.714      5.147
REMARK INTER + INTRA:          -8.099
REMARK INTER:                  -8.099
REMARK INTRA:                   0.000
REMARK UNBOUND:                 0.000
ROOT
REMARK  Name = proguanil
REMARK                            x       y       z     vdW  Elec       q    Type
REMARK                         _______ _______ _______ _____ _____    ______ ____
ATOM      1  C   UNL     1      60.204  61.964  65.945  0.00  0.00    +0.000 C 
ATOM      2  C   UNL     1      60.491  62.365  66.607  0.00  0.00    +0.000 C 
ATOM      3  C   UNL     1      60.901  63.075  66.514  0.00  0.00    +0.000 C 
ATOM      4  N   UNL     1      60.367  62.054  67.361  0.00  0.00    +0.000 NA
ATOM      5  C   UNL     1      60.654  62.455  68.023  0.00  0.00    +0.000 C 
ATOM      6  N   UNL     1      61.064  63.165  67.931  0.00  0.00    +0.000 NA
ATOM      7  N   UNL     1      60.531  62.144  68.777  0.00  0.00    +0.000 NA
ATOM      8  C   UNL     1      60.817  62.545  69.440  0.00  0.00    +0.000 C 
ATOM      9  N   UNL     1      61.227  63.255  69.348  0.00  0.00    +0.000 NA
ATOM     10  N   UNL     1      60.694  62.235  70.194  0.00  0.00    +0.000 NA
ATOM     11  C   UNL     1      60.981  62.635  70.857  0.00  0.00    +0.000 A 
ATOM     12  C   UNL     1      60.857  62.325  71.611  0.00  0.00    +0.000 A 
ATOM     13  C   UNL     1      61.144  62.725  72.274  0.00  0.00    +0.000 A 
ATOM     14  C   UNL     1      61.553  63.435  72.181  0.00  0.00    +0.000 A 
ATOM     15 CL   UNL     1      61.839  63.835  72.843  0.00  0.00    +0.000 Cl
ATOM     16  C   UNL     1      61.676  63.745  71.426  0.00  0.00    +0.000 A 
ATOM     17  C   UNL     1      61.390  63.345  70.765  0.00  0.00    +0.000 A 
ENDROOT
TORSDOF 0
ENDMDL
MODEL 6
REMARK VINA RESULT:    -8.020      3.660      4.959
REMARK INTER + INTRA:          -8.020
REMARK INTER:                  -8.020
REMARK INTRA:                   0.000
REMARK UNBOUND:                 0.000
ROOT
REMARK  Name = proguanil
REMARK                            x       y       z     vdW  Elec       q    Type
REMARK                         _______ _______ _______ _____ _____    ______ ____
ATOM      1  C   UNL     1      65.306  66.697  69.828  0.00  0.00    +0.000 C 
ATOM      2  C   UNL     1      64.824  66.108  70.145  0.00  0.00    +0.000 C 
ATOM      3  C   UNL     1      64.919  65.875  70.930  0.00  0.00    +0.000 C 
ATOM      4  N   UNL     1      64.246  65.753  69.675  0.00  0.00    +0.000 NA
ATOM      5  C   UNL     1      63.763  65.163  69.992  0.00  0.00    +0.000 C 
ATOM      6  N   UNL     1      63.858  64.930  70.778  0.00  0.00    +0.000 NA
ATOM      7  N   UNL     1      63.185  64.808  69.523  0.00  0.00    +0.000 NA
ATOM      8  C   UNL     1      62.701  64.218  69.840  0.00  0.00    +0.000 C 
ATOM      9  N   UNL     1      62.797  63.985  70.626  0.00  0.00    +0.000 NA
ATOM     10  N   UNL     1      62.124  63.863  69.371  0.00  0.00    +0.000 NA
ATOM     11  C   UNL     1      61.640  63.273  69.688  0.00  0.00    +0.000 A 
ATOM     12  C   UNL     1      61.063  62.918  69.218  0.00  0.00    +0.000 A 
ATOM     13  C   UNL     1      60.579  62.328  69.535  0.00  0.00    +0.000 A 
ATOM     14  C   UNL     1      60.674  62.095  70.321  0.00  0.00    +0.000 A 
ATOM     15 CL   UNL     1      60.192  61.506  70.637  0.00  0.00    +0.000 Cl
ATOM     16  C   UNL     1      61.253  62.451  70.789  0.00  0.00    +0.000 A 
ATOM     17  C   UNL     1      61.736  63.040  70.473  0.00  0.00    +0.000 A 
ENDROOT
TORSDOF 0
ENDMDL
MODEL 7
REMARK VINA RESULT:    -7.665     18.544     19.254
REMARK INTER + INTRA:          -7.665
REMARK INTER:                  -7.665
REMARK INTRA:                   0.000
REMARK UNBOUND:                 0.000
ROOT
REMARK  Name = proguanil
REMARK                            x       y       z     vdW  Elec       q    Type
REMARK                         _______ _______ _______ _____ _____    ______ ____
ATOM      1  C   UNL     1      62.861  82.252  57.376  0.00  0.00    +0.000 C 
ATOM      2  C   UNL     1      63.018  81.507  57.692  0.00  0.00    +0.000 C 
ATOM      3  C   UNL     1      62.410  80.956  57.773  0.00  0.00    +0.000 C 
ATOM      4  N   UNL     1      63.785  81.314  57.928  0.00  0.00    +0.000 NA
ATOM      5  C   UNL     1      63.943  80.568  58.245  0.00  0.00    +0.000 C 
ATOM      6  N   UNL     1      63.335  80.017  58.326  0.00  0.00    +0.000 NA
ATOM      7  N   UNL     1      64.710  80.375  58.480  0.00  0.00    +0.000 NA
ATOM      8  C   UNL     1      64.868  79.629  58.797  0.00  0.00    +0.000 C 
ATOM      9  N   UNL     1      64.259  79.078  58.878  0.00  0.00    +0.000 NA
ATOM     10  N   UNL     1      65.634  79.436  59.033  0.00  0.00    +0.000 NA
ATOM     11  C   UNL     1      65.792  78.690  59.350  0.00  0.00    +0.000 A 
ATOM     12  C   UNL     1      66.559  78.497  59.585  0.00  0.00    +0.000 A 
ATOM     13  C   UNL     1      66.717  77.751  59.902  0.00  0.00    +0.000 A 
ATOM     14  C   UNL     1      66.109  77.200  59.983  0.00  0.00    +0.000 A 
ATOM     15 CL   UNL     1      66.267  76.455  60.299  0.00  0.00    +0.000 Cl
ATOM     16  C   UNL     1      65.342  77.394  59.747  0.00  0.00    +0.000 A 
ATOM     17  C   UNL     1      65.184  78.139  59.431  0.00  0.00    +0.000 A 
ENDROOT
TORSDOF 0
ENDMDL
MODEL 8
REMARK VINA RESULT:    -7.218      5.204      7.200
REMARK INTER + INTRA:          -7.218
REMARK INTER:                  -7.218
REMARK INTRA:                   0.000
REMARK UNBOUND:                 0.000
ROOT
REMARK  Name = proguanil
REMARK                            x       y       z     vdW  Elec       q    Type
REMARK                         _______ _______ _______ _____ _____    ______ ____
ATOM      1  C   UNL     1      61.170  62.194  70.753  0.00  0.00    +0.000 C 
ATOM      2  C   UNL     1      61.151  62.947  71.088  0.00  0.00    +0.000 C 
ATOM      3  C   UNL     1      60.456  63.228  71.433  0.00  0.00    +0.000 C 
ATOM      4  N   UNL     1      61.827  63.419  71.078  0.00  0.00    +0.000 NA
ATOM      5  C   UNL     1      61.809  64.174  71.413  0.00  0.00    +0.000 C 
ATOM      6  N   UNL     1      61.114  64.455  71.758  0.00  0.00    +0.000 NA
ATOM      7  N   UNL     1      62.485  64.646  71.403  0.00  0.00    +0.000 NA
ATOM      8  C   UNL     1      62.467  65.400  71.738  0.00  0.00    +0.000 C 
ATOM      9  N   UNL     1      61.772  65.681  72.083  0.00  0.00    +0.000 NA
ATOM     10  N   UNL     1      63.143  65.872  71.727  0.00  0.00    +0.000 NA
ATOM     11  C   UNL     1      63.124  66.626  72.063  0.00  0.00    +0.000 A 
ATOM     12  C   UNL     1      63.801  67.098  72.052  0.00  0.00    +0.000 A 
ATOM     13  C   UNL     1      63.782  67.852  72.388  0.00  0.00    +0.000 A 
ATOM     14  C   UNL     1      63.088  68.133  72.733  0.00  0.00    +0.000 A 
ATOM     15 CL   UNL     1      63.069  68.887  73.068  0.00  0.00    +0.000 Cl
ATOM     16  C   UNL     1      62.412  67.660  72.743  0.00  0.00    +0.000 A 
ATOM     17  C   UNL     1      62.430  66.907  72.408  0.00  0.00    +0.000 A 
ENDROOT
TORSDOF 0
ENDMDL
MODEL 9
REMARK VINA RESULT:    -7.175      6.010      7.090
REMARK INTER + INTRA:          -7.175
REMARK INTER:                  -7.175
REMARK INTRA:                   0.000
REMARK UNBOUND:                 0.000
ROOT
REMARK  Name = proguanil
REMARK                            x       y       z     vdW  Elec       q    Type
REMARK                         _______ _______ _______ _____ _____    ______ ____
ATOM      1  C   UNL     1      65.810  66.929  71.327  0.00  0.00    +0.000 C 
ATOM      2  C   UNL     1      65.110  66.508  71.212  0.00  0.00    +0.000 C 
ATOM      3  C   UNL     1      65.025  66.021  70.551  0.00  0.00    +0.000 C 
ATOM      4  N   UNL     1      64.495  66.576  71.757  0.00  0.00    +0.000 NA
ATOM      5  C   UNL     1      63.794  66.155  71.642  0.00  0.00    +0.000 C 
ATOM      6  N   UNL     1      63.708  65.668  70.981  0.00  0.00    +0.000 NA
ATOM      7  N   UNL     1      63.178  66.223  72.187  0.00  0.00    +0.000 NA
ATOM      8  C   UNL     1      62.477  65.802  72.072  0.00  0.00    +0.000 C 
ATOM      9  N   UNL     1      62.392  65.315  71.411  0.00  0.00    +0.000 NA
ATOM     10  N   UNL     1      61.862  65.870  72.617  0.00  0.00    +0.000 NA
ATOM     11  C   UNL     1      61.161  65.450  72.502  0.00  0.00    +0.000 A 
ATOM     12  C   UNL     1      60.546  65.517  73.047  0.00  0.00    +0.000 A 
ATOM     13  C   UNL     1      59.845  65.097  72.932  0.00  0.00    +0.000 A 
ATOM     14  C   UNL     1      59.760  64.610  72.271  0.00  0.00    +0.000 A 
ATOM     15 CL   UNL     1      59.059  64.190  72.157  0.00  0.00    +0.000 Cl
ATOM     16  C   UNL     1      60.376  64.543  71.727  0.00  0.00    +0.000 A 
ATOM     17  C   UNL     1      61.076  64.962  71.841  0.00  0.00    +0.000 A 
ENDROOT
TORSDOF 0
ENDMDL
