MODEL 1
REMARK VINA RESULT:    -9.828      0.000      0.000
REMARK INTER + INTRA:          -9.828
REMARK INTER:                  -9.828
REMARK INTRA:                   0.000
REMARK UNBOUND:                 0.000
ROOT
REMARK  Name = promethazine
REMARK                            x       y       z     vdW  Elec       q    Type
REMARK                         _______ _______ _______ _____ _____    ______ ____
ATOM      1  C   UNL     1      60.016  64.376  69.183  0.00  0.00    +0.000 C 
ATOM      2  C   UNL     1      60.092  64.843  69.858  0.00  0.00    +0.000 C 
ATOM      3  C   UNL     1      60.377  64.515  70.559  0.00  0.00    +0.000 C 
ATOM      4  N   UNL     1      60.588  63.716  70.584  0.00  0.00    +0.000 N 
ATOM      5  C   UNL     1      60.513  63.249  69.909  0.00  0.00    +0.000 A 
ATOM      6  C   UNL     1      60.227  63.578  69.209  0.00  0.00    +0.000 A 
ATOM      7  C   UNL     1      60.151  63.110  68.533  0.00  0.00    +0.000 A 
ATOM      8  C   UNL     1      60.362  62.313  68.558  0.00  0.00    +0.000 A 
ATOM      9  C   UNL     1      60.648  61.983  69.259  0.00  0.00    +0.000 A 
ATOM     10  C   UNL     1      60.723  62.452  69.934  0.00  0.00    +0.000 A 
ATOM     11  S   UNL     1      61.009  62.122  70.635  0.00  0.00    +0.000 S 
ATOM     12  C   UNL     1      61.084  62.590  71.309  0.00  0.00    +0.000 A 
ATOM     13  C   UNL     1      60.874  63.388  71.284  0.00  0.00    +0.000 A 
ATOM     14  C   UNL     1      60.949  63.855  71.959  0.00  0.00    +0.000 A 
ATOM     15  C   UNL     1      61.235  63.526  72.660  0.00  0.00    +0.000 A 
ATOM     16  C   UNL     1      61.445  62.729  72.685  0.00  0.00    +0.000 A 
ATOM     17  C   UNL     1      61.370  62.260  72.009  0.00  0.00    +0.000 A 
ATOM     18  N   UNL     1      59.881  65.641  69.833  0.00  0.00    +0.000 NA
ATOM     19  C   UNL     1      59.595  65.971  69.133  0.00  0.00    +0.000 C 
ATOM     20  C   UNL     1      59.957  66.109  70.509  0.00  0.00    +0.000 C 
ENDROOT
TORSDOF 0
ENDMDL
MODEL 2
REMARK VINA RESULT:    -9.797      1.381      2.869
REMARK INTER + INTRA:          -9.797
REMARK INTER:                  -9.797
REMARK INTRA:                   0.000
REMARK UNBOUND:                 0.000
ROOT
REMARK  Name = promethazine
REMARK                            x       y       z     vdW  Elec       q    Type
REMARK                         _______ _______ _______ _____ _____    ______ ____
ATOM      1  C   UNL     1      62.202  64.573  71.352  0.00  0.00    +0.000 C 
ATOM      2  C   UNL     1      62.200  64.710  70.539  0.00  0.00    +0.000 C 
ATOM      3  C   UNL     1      61.839  64.170  70.030  0.00  0.00    +0.000 C 
ATOM      4  N   UNL     1      61.480  63.492  70.336  0.00  0.00    +0.000 N 
ATOM      5  C   UNL     1      61.482  63.355  71.150  0.00  0.00    +0.000 A 
ATOM      6  C   UNL     1      61.842  63.895  71.658  0.00  0.00    +0.000 A 
ATOM      7  C   UNL     1      61.845  63.759  72.472  0.00  0.00    +0.000 A 
ATOM      8  C   UNL     1      61.485  63.082  72.777  0.00  0.00    +0.000 A 
ATOM      9  C   UNL     1      61.124  62.541  72.268  0.00  0.00    +0.000 A 
ATOM     10  C   UNL     1      61.123  62.678  71.455  0.00  0.00    +0.000 A 
ATOM     11  S   UNL     1      60.761  62.137  70.946  0.00  0.00    +0.000 S 
ATOM     12  C   UNL     1      60.760  62.275  70.133  0.00  0.00    +0.000 A 
ATOM     13  C   UNL     1      61.119  62.952  69.828  0.00  0.00    +0.000 A 
ATOM     14  C   UNL     1      61.117  63.088  69.015  0.00  0.00    +0.000 A 
ATOM     15  C   UNL     1      60.756  62.548  68.506  0.00  0.00    +0.000 A 
ATOM     16  C   UNL     1      60.397  61.871  68.811  0.00  0.00    +0.000 A 
ATOM     17  C   UNL     1      60.399  61.734  69.625  0.00  0.00    +0.000 A 
ATOM     18  N   UNL     1      62.559  65.387  70.234  0.00  0.00    +0.000 NA
ATOM     19  C   UNL     1      62.920  65.927  70.742  0.00  0.00    +0.000 C 
ATOM     20  C   UNL     1      62.557  65.524  69.420  0.00  0.00    +0.000 C 
ENDROOT
TORSDOF 0
ENDMDL
MODEL 3
REMARK VINA RESULT:    -9.613      1.734      2.795
REMARK INTER + INTRA:          -9.613
REMARK INTER:                  -9.613
REMARK INTRA:                   0.000
REMARK UNBOUND:                 0.000
ROOT
REMARK  Name = promethazine
REMARK                            x       y       z     vdW  Elec       q    Type
REMARK                         _______ _______ _______ _____ _____    ______ ____
ATOM      1  C   UNL     1      60.528  62.246  69.049  0.00  0.00    +0.000 C 
ATOM      2  C   UNL     1      60.908  62.731  68.501  0.00  0.00    +0.000 C 
ATOM      3  C   UNL     1      61.471  63.279  68.753  0.00  0.00    +0.000 C 
ATOM      4  N   UNL     1      61.653  63.343  69.556  0.00  0.00    +0.000 N 
ATOM      5  C   UNL     1      61.273  62.858  70.105  0.00  0.00    +0.000 A 
ATOM      6  C   UNL     1      60.711  62.310  69.853  0.00  0.00    +0.000 A 
ATOM      7  C   UNL     1      60.330  61.825  70.401  0.00  0.00    +0.000 A 
ATOM      8  C   UNL     1      60.513  61.888  71.203  0.00  0.00    +0.000 A 
ATOM      9  C   UNL     1      61.076  62.437  71.457  0.00  0.00    +0.000 A 
ATOM     10  C   UNL     1      61.455  62.921  70.907  0.00  0.00    +0.000 A 
ATOM     11  S   UNL     1      62.018  63.470  71.161  0.00  0.00    +0.000 S 
ATOM     12  C   UNL     1      62.397  63.954  70.611  0.00  0.00    +0.000 A 
ATOM     13  C   UNL     1      62.215  63.890  69.809  0.00  0.00    +0.000 A 
ATOM     14  C   UNL     1      62.595  64.375  69.261  0.00  0.00    +0.000 A 
ATOM     15  C   UNL     1      63.157  64.923  69.513  0.00  0.00    +0.000 A 
ATOM     16  C   UNL     1      63.340  64.987  70.315  0.00  0.00    +0.000 A 
ATOM     17  C   UNL     1      62.959  64.502  70.865  0.00  0.00    +0.000 A 
ATOM     18  N   UNL     1      60.726  62.667  67.699  0.00  0.00    +0.000 NA
ATOM     19  C   UNL     1      60.164  62.119  67.445  0.00  0.00    +0.000 C 
ATOM     20  C   UNL     1      61.106  63.152  67.149  0.00  0.00    +0.000 C 
ENDROOT
TORSDOF 0
ENDMDL
MODEL 4
REMARK VINA RESULT:    -9.371      0.907      2.354
REMARK INTER + INTRA:          -9.371
REMARK INTER:                  -9.371
REMARK INTRA:                   0.000
REMARK UNBOUND:                 0.000
ROOT
REMARK  Name = promethazine
REMARK                            x       y       z     vdW  Elec       q    Type
REMARK                         _______ _______ _______ _____ _____    ______ ____
ATOM      1  C   UNL     1      60.118  64.005  69.059  0.00  0.00    +0.000 C 
ATOM      2  C   UNL     1      60.421  63.240  69.111  0.00  0.00    +0.000 C 
ATOM      3  C   UNL     1      60.717  62.961  69.829  0.00  0.00    +0.000 C 
ATOM      4  N   UNL     1      60.710  63.449  70.496  0.00  0.00    +0.000 N 
ATOM      5  C   UNL     1      60.406  64.214  70.443  0.00  0.00    +0.000 A 
ATOM      6  C   UNL     1      60.111  64.492  69.725  0.00  0.00    +0.000 A 
ATOM      7  C   UNL     1      59.807  65.258  69.672  0.00  0.00    +0.000 A 
ATOM      8  C   UNL     1      59.800  65.745  70.337  0.00  0.00    +0.000 A 
ATOM      9  C   UNL     1      60.096  65.467  71.056  0.00  0.00    +0.000 A 
ATOM     10  C   UNL     1      60.399  64.702  71.108  0.00  0.00    +0.000 A 
ATOM     11  S   UNL     1      60.694  64.423  71.827  0.00  0.00    +0.000 S 
ATOM     12  C   UNL     1      60.997  63.658  71.879  0.00  0.00    +0.000 A 
ATOM     13  C   UNL     1      61.005  63.171  71.213  0.00  0.00    +0.000 A 
ATOM     14  C   UNL     1      61.308  62.406  71.266  0.00  0.00    +0.000 A 
ATOM     15  C   UNL     1      61.604  62.127  71.984  0.00  0.00    +0.000 A 
ATOM     16  C   UNL     1      61.596  62.614  72.650  0.00  0.00    +0.000 A 
ATOM     17  C   UNL     1      61.293  63.380  72.598  0.00  0.00    +0.000 A 
ATOM     18  N   UNL     1      60.429  62.752  68.446  0.00  0.00    +0.000 NA
ATOM     19  C   UNL     1      60.134  63.030  67.727  0.00  0.00    +0.000 C 
ATOM     20  C   UNL     1      60.732  61.986  68.498  0.00  0.00    +0.000 C 
ENDROOT
TORSDOF 0
ENDMDL
MODEL 5
REMARK VINA RESULT:    -9.343      1.096      3.239
REMARK INTER + INTRA:          -9.343
REMARK INTER:                  -9.343
REMARK INTRA:                   0.000
REMARK UNBOUND:                 0.000
ROOT
REMARK  Name = promethazine
REMARK                            x       y       z     vdW  Elec       q    Type
REMARK                         _______ _______ _______ _____ _____    ______ ____
ATOM      1  C   UNL     1      60.496  62.808  69.922  0.00  0.00    +0.000 C 
ATOM      2  C   UNL     1      60.374  63.205  69.210  0.00  0.00    +0.000 C 
ATOM      3  C   UNL     1      60.175  64.005  69.211  0.00  0.00    +0.000 C 
ATOM      4  N   UNL     1      60.098  64.410  69.928  0.00  0.00    +0.000 N 
ATOM      5  C   UNL     1      60.221  64.012  70.640  0.00  0.00    +0.000 A 
ATOM      6  C   UNL     1      60.420  63.212  70.638  0.00  0.00    +0.000 A 
ATOM      7  C   UNL     1      60.543  62.815  71.351  0.00  0.00    +0.000 A 
ATOM      8  C   UNL     1      60.467  63.219  72.066  0.00  0.00    +0.000 A 
ATOM      9  C   UNL     1      60.268  64.020  72.069  0.00  0.00    +0.000 A 
ATOM     10  C   UNL     1      60.145  64.416  71.356  0.00  0.00    +0.000 A 
ATOM     11  S   UNL     1      59.946  65.218  71.358  0.00  0.00    +0.000 S 
ATOM     12  C   UNL     1      59.823  65.614  70.645  0.00  0.00    +0.000 A 
ATOM     13  C   UNL     1      59.899  65.210  69.930  0.00  0.00    +0.000 A 
ATOM     14  C   UNL     1      59.777  65.606  69.218  0.00  0.00    +0.000 A 
ATOM     15  C   UNL     1      59.577  66.407  69.219  0.00  0.00    +0.000 A 
ATOM     16  C   UNL     1      59.501  66.811  69.935  0.00  0.00    +0.000 A 
ATOM     17  C   UNL     1      59.624  66.414  70.648  0.00  0.00    +0.000 A 
ATOM     18  N   UNL     1      60.450  62.801  68.494  0.00  0.00    +0.000 NA
ATOM     19  C   UNL     1      60.649  62.000  68.491  0.00  0.00    +0.000 C 
ATOM     20  C   UNL     1      60.327  63.197  67.781  0.00  0.00    +0.000 C 
ENDROOT
TORSDOF 0
ENDMDL
MODEL 6
REMARK VINA RESULT:    -9.330      2.801      3.330
REMARK INTER + INTRA:          -9.330
REMARK INTER:                  -9.330
REMARK INTRA:                   0.000
REMARK UNBOUND:                 0.000
ROOT
REMARK  Name = promethazine
REMARK                            x       y       z     vdW  Elec       q    Type
REMARK                         _______ _______ _______ _____ _____    ______ ____
ATOM      1  C   UNL     1      63.484  66.292  71.386  0.00  0.00    +0.000 C 
ATOM      2  C   UNL     1      62.979  66.300  72.037  0.00  0.00    +0.000 C 
ATOM      3  C   UNL     1      62.507  65.644  72.202  0.00  0.00    +0.000 C 
ATOM      4  N   UNL     1      62.540  64.978  71.715  0.00  0.00    +0.000 N 
ATOM      5  C   UNL     1      63.046  64.970  71.063  0.00  0.00    +0.000 A 
ATOM      6  C   UNL     1      63.518  65.626  70.898  0.00  0.00    +0.000 A 
ATOM      7  C   UNL     1      64.024  65.618  70.246  0.00  0.00    +0.000 A 
ATOM      8  C   UNL     1      64.057  64.953  69.759  0.00  0.00    +0.000 A 
ATOM      9  C   UNL     1      63.585  64.296  69.924  0.00  0.00    +0.000 A 
ATOM     10  C   UNL     1      63.080  64.305  70.575  0.00  0.00    +0.000 A 
ATOM     11  S   UNL     1      62.608  63.648  70.740  0.00  0.00    +0.000 S 
ATOM     12  C   UNL     1      62.102  63.658  71.392  0.00  0.00    +0.000 A 
ATOM     13  C   UNL     1      62.069  64.322  71.879  0.00  0.00    +0.000 A 
ATOM     14  C   UNL     1      61.564  64.331  72.531  0.00  0.00    +0.000 A 
ATOM     15  C   UNL     1      61.091  63.675  72.696  0.00  0.00    +0.000 A 
ATOM     16  C   UNL     1      61.125  63.010  72.209  0.00  0.00    +0.000 A 
ATOM     17  C   UNL     1      61.631  63.001  71.556  0.00  0.00    +0.000 A 
ATOM     18  N   UNL     1      62.945  66.965  72.524  0.00  0.00    +0.000 NA
ATOM     19  C   UNL     1      63.417  67.621  72.360  0.00  0.00    +0.000 C 
ATOM     20  C   UNL     1      62.440  66.974  73.177  0.00  0.00    +0.000 C 
ENDROOT
TORSDOF 0
ENDMDL
MODEL 7
REMARK VINA RESULT:    -9.327      4.025      4.551
REMARK INTER + INTRA:          -9.327
REMARK INTER:                  -9.327
REMARK INTRA:                   0.000
REMARK UNBOUND:                 0.000
ROOT
REMARK  Name = promethazine
REMARK                            x       y       z     vdW  Elec       q    Type
REMARK                         _______ _______ _______ _____ _____    ______ ____
ATOM      1  C   UNL     1      62.419  65.283  71.558  0.00  0.00    +0.000 C 
ATOM      2  C   UNL     1      62.649  65.920  72.029  0.00  0.00    +0.000 C 
ATOM      3  C   UNL     1      63.337  66.338  71.851  0.00  0.00    +0.000 C 
ATOM      4  N   UNL     1      63.797  66.119  71.201  0.00  0.00    +0.000 N 
ATOM      5  C   UNL     1      63.567  65.481  70.730  0.00  0.00    +0.000 A 
ATOM      6  C   UNL     1      62.879  65.064  70.908  0.00  0.00    +0.000 A 
ATOM      7  C   UNL     1      62.649  64.426  70.437  0.00  0.00    +0.000 A 
ATOM      8  C   UNL     1      63.108  64.207  69.787  0.00  0.00    +0.000 A 
ATOM      9  C   UNL     1      63.797  64.625  69.609  0.00  0.00    +0.000 A 
ATOM     10  C   UNL     1      64.026  65.262  70.080  0.00  0.00    +0.000 A 
ATOM     11  S   UNL     1      64.715  65.681  69.902  0.00  0.00    +0.000 S 
ATOM     12  C   UNL     1      64.944  66.318  70.373  0.00  0.00    +0.000 A 
ATOM     13  C   UNL     1      64.485  66.537  71.023  0.00  0.00    +0.000 A 
ATOM     14  C   UNL     1      64.714  67.173  71.493  0.00  0.00    +0.000 A 
ATOM     15  C   UNL     1      65.403  67.592  71.316  0.00  0.00    +0.000 A 
ATOM     16  C   UNL     1      65.862  67.373  70.666  0.00  0.00    +0.000 A 
ATOM     17  C   UNL     1      65.632  66.735  70.194  0.00  0.00    +0.000 A 
ATOM     18  N   UNL     1      62.190  66.139  72.678  0.00  0.00    +0.000 NA
ATOM     19  C   UNL     1      61.501  65.721  72.857  0.00  0.00    +0.000 C 
ATOM     20  C   UNL     1      62.419  66.776  73.150  0.00  0.00    +0.000 C 
ENDROOT
TORSDOF 0
ENDMDL
MODEL 8
REMARK VINA RESULT:    -9.193      3.793      4.793
REMARK INTER + INTRA:          -9.193
REMARK INTER:                  -9.193
REMARK INTRA:                   0.000
REMARK UNBOUND:                 0.000
ROOT
REMARK  Name = promethazine
REMARK                            x       y       z     vdW  Elec       q    Type
REMARK                         _______ _______ _______ _____ _____    ______ ____
ATOM      1  C   UNL     1      62.222  64.983  71.097  0.00  0.00    +0.000 C 
ATOM      2  C   UNL     1      62.654  64.890  70.401  0.00  0.00    +0.000 C 
ATOM      3  C   UNL     1      63.334  65.340  70.273  0.00  0.00    +0.000 C 
ATOM      4  N   UNL     1      63.582  65.884  70.843  0.00  0.00    +0.000 N 
ATOM      5  C   UNL     1      63.149  65.977  71.540  0.00  0.00    +0.000 A 
ATOM      6  C   UNL     1      62.470  65.527  71.667  0.00  0.00    +0.000 A 
ATOM      7  C   UNL     1      62.037  65.620  72.364  0.00  0.00    +0.000 A 
ATOM      8  C   UNL     1      62.285  66.163  72.933  0.00  0.00    +0.000 A 
ATOM      9  C   UNL     1      62.965  66.614  72.806  0.00  0.00    +0.000 A 
ATOM     10  C   UNL     1      63.397  66.520  72.109  0.00  0.00    +0.000 A 
ATOM     11  S   UNL     1      64.077  66.971  71.982  0.00  0.00    +0.000 S 
ATOM     12  C   UNL     1      64.508  66.877  71.286  0.00  0.00    +0.000 A 
ATOM     13  C   UNL     1      64.261  66.334  70.716  0.00  0.00    +0.000 A 
ATOM     14  C   UNL     1      64.693  66.241  70.020  0.00  0.00    +0.000 A 
ATOM     15  C   UNL     1      65.373  66.691  69.892  0.00  0.00    +0.000 A 
ATOM     16  C   UNL     1      65.620  67.234  70.462  0.00  0.00    +0.000 A 
ATOM     17  C   UNL     1      65.188  67.327  71.159  0.00  0.00    +0.000 A 
ATOM     18  N   UNL     1      62.406  64.347  69.832  0.00  0.00    +0.000 NA
ATOM     19  C   UNL     1      61.727  63.897  69.958  0.00  0.00    +0.000 C 
ATOM     20  C   UNL     1      62.839  64.254  69.134  0.00  0.00    +0.000 C 
ENDROOT
TORSDOF 0
ENDMDL
MODEL 9
REMARK VINA RESULT:    -9.153      1.970      2.736
REMARK INTER + INTRA:          -9.153
REMARK INTER:                  -9.153
REMARK INTRA:                   0.000
REMARK UNBOUND:                 0.000
ROOT
REMARK  Name = promethazine
REMARK                            x       y       z     vdW  Elec       q    Type
REMARK                         _______ _______ _______ _____ _____    ______ ____
ATOM      1  C   UNL     1      62.353  63.949  68.890  0.00  0.00    +0.000 C 
ATOM      2  C   UNL     1      61.627  63.577  69.006  0.00  0.00    +0.000 C 
ATOM      3  C   UNL     1      61.298  63.538  69.761  0.00  0.00    +0.000 C 
ATOM      4  N   UNL     1      61.696  63.873  70.402  0.00  0.00    +0.000 N 
ATOM      5  C   UNL     1      62.424  64.246  70.286  0.00  0.00    +0.000 A 
ATOM      6  C   UNL     1      62.752  64.284  69.531  0.00  0.00    +0.000 A 
ATOM      7  C   UNL     1      63.479  64.656  69.415  0.00  0.00    +0.000 A 
ATOM      8  C   UNL     1      63.878  64.991  70.056  0.00  0.00    +0.000 A 
ATOM      9  C   UNL     1      63.549  64.953  70.812  0.00  0.00    +0.000 A 
ATOM     10  C   UNL     1      62.822  64.580  70.927  0.00  0.00    +0.000 A 
ATOM     11  S   UNL     1      62.493  64.542  71.683  0.00  0.00    +0.000 S 
ATOM     12  C   UNL     1      61.766  64.170  71.798  0.00  0.00    +0.000 A 
ATOM     13  C   UNL     1      61.368  63.835  71.157  0.00  0.00    +0.000 A 
ATOM     14  C   UNL     1      60.642  63.463  71.273  0.00  0.00    +0.000 A 
ATOM     15  C   UNL     1      60.312  63.425  72.029  0.00  0.00    +0.000 A 
ATOM     16  C   UNL     1      60.710  63.759  72.669  0.00  0.00    +0.000 A 
ATOM     17  C   UNL     1      61.438  64.132  72.554  0.00  0.00    +0.000 A 
ATOM     18  N   UNL     1      61.229  63.242  68.365  0.00  0.00    +0.000 NA
ATOM     19  C   UNL     1      61.557  63.280  67.609  0.00  0.00    +0.000 C 
ATOM     20  C   UNL     1      60.501  62.869  68.481  0.00  0.00    +0.000 C 
ENDROOT
TORSDOF 0
ENDMDL
