MODEL 1
REMARK VINA RESULT:   -13.603      0.000      0.000
REMARK INTER + INTRA:         -13.603
REMARK INTER:                 -13.603
REMARK INTRA:                   0.000
REMARK UNBOUND:                 0.000
ROOT
REMARK  Name = promestriene
REMARK                            x       y       z     vdW  Elec       q    Type
REMARK                         _______ _______ _______ _____ _____    ______ ____
ATOM      1  C   UNL     1      60.743  64.837  70.374  0.00  0.00    +0.000 C 
ATOM      2  C   UNL     1      60.245  64.350  69.935  0.00  0.00    +0.000 C 
ATOM      3  C   UNL     1      60.501  64.037  69.216  0.00  0.00    +0.000 C 
ATOM      4  O   UNL     1      60.002  63.548  68.777  0.00  0.00    +0.000 OA
ATOM      5  C   UNL     1      60.259  63.236  68.058  0.00  0.00    +0.000 A 
ATOM      6  C   UNL     1      59.760  62.748  67.618  0.00  0.00    +0.000 A 
ATOM      7  C   UNL     1      60.017  62.435  66.900  0.00  0.00    +0.000 A 
ATOM      8  C   UNL     1      60.773  62.610  66.620  0.00  0.00    +0.000 A 
ATOM      9  C   UNL     1      61.272  63.098  67.059  0.00  0.00    +0.000 A 
ATOM     10  C   UNL     1      61.015  63.411  67.778  0.00  0.00    +0.000 A 
ATOM     11  C   UNL     1      61.030  62.298  65.901  0.00  0.00    +0.000 C 
ATOM     12  C   UNL     1      61.786  62.473  65.622  0.00  0.00    +0.000 C 
ATOM     13  C   UNL     1      62.043  62.161  64.903  0.00  0.00    +0.000 C 
ATOM     14  C   UNL     1      61.543  61.672  64.463  0.00  0.00    +0.000 C 
ATOM     15  C   UNL     1      62.281  61.799  64.115  0.00  0.00    +0.000 C 
ATOM     16  C   UNL     1      61.645  61.287  63.741  0.00  0.00    +0.000 C 
ATOM     17  C   UNL     1      60.951  60.873  63.574  0.00  0.00    +0.000 C 
ATOM     18  C   UNL     1      60.421  61.003  64.193  0.00  0.00    +0.000 C 
ATOM     19  C   UNL     1      60.787  61.497  64.742  0.00  0.00    +0.000 C 
ATOM     20  C   UNL     1      60.530  61.810  65.462  0.00  0.00    +0.000 C 
ATOM     21  C   UNL     1      59.774  61.634  65.741  0.00  0.00    +0.000 C 
ATOM     22  C   UNL     1      59.518  61.947  66.460  0.00  0.00    +0.000 C 
ATOM     23  O   UNL     1      62.320  61.311  63.268  0.00  0.00    +0.000 OA
ATOM     24  C   UNL     1      62.976  61.751  63.508  0.00  0.00    +0.000 C 
ENDROOT
TORSDOF 0
ENDMDL
MODEL 2
REMARK VINA RESULT:   -12.733      2.216      6.032
REMARK INTER + INTRA:         -12.733
REMARK INTER:                 -12.733
REMARK INTRA:                   0.000
REMARK UNBOUND:                 0.000
ROOT
REMARK  Name = promestriene
REMARK                            x       y       z     vdW  Elec       q    Type
REMARK                         _______ _______ _______ _____ _____    ______ ____
ATOM      1  C   UNL     1      59.884  61.320  65.429  0.00  0.00    +0.000 C 
ATOM      2  C   UNL     1      59.784  62.002  65.881  0.00  0.00    +0.000 C 
ATOM      3  C   UNL     1      60.011  62.008  66.674  0.00  0.00    +0.000 C 
ATOM      4  O   UNL     1      59.910  62.691  67.126  0.00  0.00    +0.000 OA
ATOM      5  C   UNL     1      60.137  62.698  67.919  0.00  0.00    +0.000 A 
ATOM      6  C   UNL     1      60.037  63.380  68.372  0.00  0.00    +0.000 A 
ATOM      7  C   UNL     1      60.263  63.386  69.165  0.00  0.00    +0.000 A 
ATOM      8  C   UNL     1      60.590  62.710  69.507  0.00  0.00    +0.000 A 
ATOM      9  C   UNL     1      60.690  62.028  69.054  0.00  0.00    +0.000 A 
ATOM     10  C   UNL     1      60.463  62.021  68.261  0.00  0.00    +0.000 A 
ATOM     11  C   UNL     1      60.816  62.716  70.300  0.00  0.00    +0.000 C 
ATOM     12  C   UNL     1      61.143  62.039  70.641  0.00  0.00    +0.000 C 
ATOM     13  C   UNL     1      61.369  62.046  71.434  0.00  0.00    +0.000 C 
ATOM     14  C   UNL     1      61.269  62.729  71.886  0.00  0.00    +0.000 C 
ATOM     15  C   UNL     1      61.601  62.097  72.301  0.00  0.00    +0.000 C 
ATOM     16  C   UNL     1      61.439  62.897  72.675  0.00  0.00    +0.000 C 
ATOM     17  C   UNL     1      61.218  63.679  72.822  0.00  0.00    +0.000 C 
ATOM     18  C   UNL     1      60.910  63.992  72.124  0.00  0.00    +0.000 C 
ATOM     19  C   UNL     1      60.942  63.405  71.545  0.00  0.00    +0.000 C 
ATOM     20  C   UNL     1      60.716  63.399  70.751  0.00  0.00    +0.000 C 
ATOM     21  C   UNL     1      60.389  64.075  70.410  0.00  0.00    +0.000 C 
ATOM     22  C   UNL     1      60.163  64.069  69.617  0.00  0.00    +0.000 C 
ATOM     23  O   UNL     1      61.772  62.377  73.222  0.00  0.00    +0.000 OA
ATOM     24  C   UNL     1      61.966  61.608  72.994  0.00  0.00    +0.000 C 
ENDROOT
TORSDOF 0
ENDMDL
MODEL 3
REMARK VINA RESULT:   -12.413      3.466      5.853
REMARK INTER + INTRA:         -12.413
REMARK INTER:                 -12.413
REMARK INTRA:                   0.000
REMARK UNBOUND:                 0.000
ROOT
REMARK  Name = promestriene
REMARK                            x       y       z     vdW  Elec       q    Type
REMARK                         _______ _______ _______ _____ _____    ______ ____
ATOM      1  C   UNL     1      62.747  68.433  72.845  0.00  0.00    +0.000 C 
ATOM      2  C   UNL     1      62.607  67.698  73.190  0.00  0.00    +0.000 C 
ATOM      3  C   UNL     1      62.359  67.064  72.724  0.00  0.00    +0.000 C 
ATOM      4  O   UNL     1      62.218  66.328  73.070  0.00  0.00    +0.000 OA
ATOM      5  C   UNL     1      61.970  65.694  72.604  0.00  0.00    +0.000 A 
ATOM      6  C   UNL     1      61.829  64.958  72.948  0.00  0.00    +0.000 A 
ATOM      7  C   UNL     1      61.581  64.325  72.482  0.00  0.00    +0.000 A 
ATOM      8  C   UNL     1      61.474  64.426  71.670  0.00  0.00    +0.000 A 
ATOM      9  C   UNL     1      61.615  65.162  71.325  0.00  0.00    +0.000 A 
ATOM     10  C   UNL     1      61.863  65.796  71.792  0.00  0.00    +0.000 A 
ATOM     11  C   UNL     1      61.227  63.792  71.204  0.00  0.00    +0.000 C 
ATOM     12  C   UNL     1      61.120  63.894  70.392  0.00  0.00    +0.000 C 
ATOM     13  C   UNL     1      60.872  63.261  69.926  0.00  0.00    +0.000 C 
ATOM     14  C   UNL     1      60.731  62.525  70.272  0.00  0.00    +0.000 C 
ATOM     15  C   UNL     1      60.602  62.543  69.457  0.00  0.00    +0.000 C 
ATOM     16  C   UNL     1      60.485  61.805  69.954  0.00  0.00    +0.000 C 
ATOM     17  C   UNL     1      60.439  61.257  70.570  0.00  0.00    +0.000 C 
ATOM     18  C   UNL     1      60.658  61.639  71.267  0.00  0.00    +0.000 C 
ATOM     19  C   UNL     1      60.838  62.422  71.083  0.00  0.00    +0.000 C 
ATOM     20  C   UNL     1      61.086  63.057  71.550  0.00  0.00    +0.000 C 
ATOM     21  C   UNL     1      61.193  62.955  72.361  0.00  0.00    +0.000 C 
ATOM     22  C   UNL     1      61.440  63.588  72.828  0.00  0.00    +0.000 C 
ATOM     23  O   UNL     1      60.314  61.657  69.160  0.00  0.00    +0.000 OA
ATOM     24  C   UNL     1      60.385  62.262  68.604  0.00  0.00    +0.000 C 
ENDROOT
TORSDOF 0
ENDMDL
MODEL 4
REMARK VINA RESULT:   -11.752      1.259      1.788
REMARK INTER + INTRA:         -11.752
REMARK INTER:                 -11.752
REMARK INTRA:                   0.000
REMARK UNBOUND:                 0.000
ROOT
REMARK  Name = promestriene
REMARK                            x       y       z     vdW  Elec       q    Type
REMARK                         _______ _______ _______ _____ _____    ______ ____
ATOM      1  C   UNL     1      59.578  66.420  70.687  0.00  0.00    +0.000 C 
ATOM      2  C   UNL     1      59.627  65.598  70.674  0.00  0.00    +0.000 C 
ATOM      3  C   UNL     1      59.922  65.213  70.007  0.00  0.00    +0.000 C 
ATOM      4  O   UNL     1      59.972  64.389  69.994  0.00  0.00    +0.000 OA
ATOM      5  C   UNL     1      60.267  64.004  69.327  0.00  0.00    +0.000 A 
ATOM      6  C   UNL     1      60.317  63.181  69.313  0.00  0.00    +0.000 A 
ATOM      7  C   UNL     1      60.612  62.796  68.646  0.00  0.00    +0.000 A 
ATOM      8  C   UNL     1      60.858  63.235  67.991  0.00  0.00    +0.000 A 
ATOM      9  C   UNL     1      60.808  64.058  68.005  0.00  0.00    +0.000 A 
ATOM     10  C   UNL     1      60.513  64.442  68.672  0.00  0.00    +0.000 A 
ATOM     11  C   UNL     1      61.153  62.850  67.324  0.00  0.00    +0.000 C 
ATOM     12  C   UNL     1      61.399  63.288  66.670  0.00  0.00    +0.000 C 
ATOM     13  C   UNL     1      61.694  62.904  66.003  0.00  0.00    +0.000 C 
ATOM     14  C   UNL     1      61.744  62.080  65.990  0.00  0.00    +0.000 C 
ATOM     15  C   UNL     1      62.009  62.444  65.298  0.00  0.00    +0.000 C 
ATOM     16  C   UNL     1      62.009  61.553  65.414  0.00  0.00    +0.000 C 
ATOM     17  C   UNL     1      61.928  60.787  65.712  0.00  0.00    +0.000 C 
ATOM     18  C   UNL     1      61.612  60.843  66.472  0.00  0.00    +0.000 C 
ATOM     19  C   UNL     1      61.498  61.641  66.644  0.00  0.00    +0.000 C 
ATOM     20  C   UNL     1      61.203  62.027  67.311  0.00  0.00    +0.000 C 
ATOM     21  C   UNL     1      60.957  61.588  67.965  0.00  0.00    +0.000 C 
ATOM     22  C   UNL     1      60.662  61.973  68.633  0.00  0.00    +0.000 C 
ATOM     23  O   UNL     1      62.304  61.754  64.670  0.00  0.00    +0.000 OA
ATOM     24  C   UNL     1      62.354  62.546  64.447  0.00  0.00    +0.000 C 
ENDROOT
TORSDOF 0
ENDMDL
MODEL 5
REMARK VINA RESULT:   -11.412      3.707      6.047
REMARK INTER + INTRA:         -11.412
REMARK INTER:                 -11.412
REMARK INTRA:                   0.000
REMARK UNBOUND:                 0.000
ROOT
REMARK  Name = promestriene
REMARK                            x       y       z     vdW  Elec       q    Type
REMARK                         _______ _______ _______ _____ _____    ______ ____
ATOM      1  C   UNL     1      57.767  68.210  72.871  0.00  0.00    +0.000 C 
ATOM      2  C   UNL     1      58.270  67.661  73.222  0.00  0.00    +0.000 C 
ATOM      3  C   UNL     1      58.542  67.014  72.788  0.00  0.00    +0.000 C 
ATOM      4  O   UNL     1      59.046  66.463  73.140  0.00  0.00    +0.000 OA
ATOM      5  C   UNL     1      59.318  65.817  72.706  0.00  0.00    +0.000 A 
ATOM      6  C   UNL     1      59.821  65.266  73.057  0.00  0.00    +0.000 A 
ATOM      7  C   UNL     1      60.093  64.619  72.622  0.00  0.00    +0.000 A 
ATOM      8  C   UNL     1      59.862  64.523  71.836  0.00  0.00    +0.000 A 
ATOM      9  C   UNL     1      59.358  65.074  71.485  0.00  0.00    +0.000 A 
ATOM     10  C   UNL     1      59.086  65.720  71.920  0.00  0.00    +0.000 A 
ATOM     11  C   UNL     1      60.133  63.877  71.402  0.00  0.00    +0.000 C 
ATOM     12  C   UNL     1      59.901  63.781  70.616  0.00  0.00    +0.000 C 
ATOM     13  C   UNL     1      60.173  63.134  70.182  0.00  0.00    +0.000 C 
ATOM     14  C   UNL     1      60.677  62.584  70.534  0.00  0.00    +0.000 C 
ATOM     15  C   UNL     1      60.493  62.416  69.747  0.00  0.00    +0.000 C 
ATOM     16  C   UNL     1      61.031  61.897  70.245  0.00  0.00    +0.000 C 
ATOM     17  C   UNL     1      61.482  61.568  70.853  0.00  0.00    +0.000 C 
ATOM     18  C   UNL     1      61.407  62.052  71.517  0.00  0.00    +0.000 C 
ATOM     19  C   UNL     1      60.909  62.679  71.320  0.00  0.00    +0.000 C 
ATOM     20  C   UNL     1      60.637  63.326  71.754  0.00  0.00    +0.000 C 
ATOM     21  C   UNL     1      60.869  63.422  72.540  0.00  0.00    +0.000 C 
ATOM     22  C   UNL     1      60.597  64.069  72.974  0.00  0.00    +0.000 C 
ATOM     23  O   UNL     1      60.949  61.592  69.483  0.00  0.00    +0.000 OA
ATOM     24  C   UNL     1      60.477  61.983  68.931  0.00  0.00    +0.000 C 
ENDROOT
TORSDOF 0
ENDMDL
MODEL 6
REMARK VINA RESULT:   -11.405      1.805      5.504
REMARK INTER + INTRA:         -11.405
REMARK INTER:                 -11.405
REMARK INTRA:                   0.000
REMARK UNBOUND:                 0.000
ROOT
REMARK  Name = promestriene
REMARK                            x       y       z     vdW  Elec       q    Type
REMARK                         _______ _______ _______ _____ _____    ______ ____
ATOM      1  C   UNL     1      60.618  61.631  64.686  0.00  0.00    +0.000 C 
ATOM      2  C   UNL     1      60.256  61.639  65.426  0.00  0.00    +0.000 C 
ATOM      3  C   UNL     1      60.618  62.026  66.058  0.00  0.00    +0.000 C 
ATOM      4  O   UNL     1      60.255  62.034  66.800  0.00  0.00    +0.000 OA
ATOM      5  C   UNL     1      60.617  62.421  67.432  0.00  0.00    +0.000 A 
ATOM      6  C   UNL     1      60.256  62.429  68.173  0.00  0.00    +0.000 A 
ATOM      7  C   UNL     1      60.618  62.816  68.805  0.00  0.00    +0.000 A 
ATOM      8  C   UNL     1      61.342  63.195  68.697  0.00  0.00    +0.000 A 
ATOM      9  C   UNL     1      61.704  63.187  67.956  0.00  0.00    +0.000 A 
ATOM     10  C   UNL     1      61.342  62.800  67.324  0.00  0.00    +0.000 A 
ATOM     11  C   UNL     1      61.704  63.582  69.329  0.00  0.00    +0.000 C 
ATOM     12  C   UNL     1      62.429  63.962  69.220  0.00  0.00    +0.000 C 
ATOM     13  C   UNL     1      62.791  64.349  69.852  0.00  0.00    +0.000 C 
ATOM     14  C   UNL     1      62.428  64.356  70.593  0.00  0.00    +0.000 C 
ATOM     15  C   UNL     1      63.149  64.758  70.567  0.00  0.00    +0.000 C 
ATOM     16  C   UNL     1      62.652  64.690  71.313  0.00  0.00    +0.000 C 
ATOM     17  C   UNL     1      62.066  64.518  71.868  0.00  0.00    +0.000 C 
ATOM     18  C   UNL     1      61.480  64.077  71.490  0.00  0.00    +0.000 C 
ATOM     19  C   UNL     1      61.704  63.977  70.702  0.00  0.00    +0.000 C 
ATOM     20  C   UNL     1      61.341  63.590  70.069  0.00  0.00    +0.000 C 
ATOM     21  C   UNL     1      60.617  63.210  70.179  0.00  0.00    +0.000 C 
ATOM     22  C   UNL     1      60.255  62.823  69.546  0.00  0.00    +0.000 C 
ATOM     23  O   UNL     1      63.341  65.122  71.455  0.00  0.00    +0.000 OA
ATOM     24  C   UNL     1      63.879  65.251  70.843  0.00  0.00    +0.000 C 
ENDROOT
TORSDOF 0
ENDMDL
MODEL 7
REMARK VINA RESULT:   -10.637     23.690     25.331
REMARK INTER + INTRA:         -10.637
REMARK INTER:                 -10.637
REMARK INTRA:                   0.000
REMARK UNBOUND:                 0.000
ROOT
REMARK  Name = promestriene
REMARK                            x       y       z     vdW  Elec       q    Type
REMARK                         _______ _______ _______ _____ _____    ______ ____
ATOM      1  C   UNL     1      67.402  81.421  54.420  0.00  0.00    +0.000 C 
ATOM      2  C   UNL     1      68.195  81.561  54.249  0.00  0.00    +0.000 C 
ATOM      3  C   UNL     1      68.538  81.224  53.578  0.00  0.00    +0.000 C 
ATOM      4  O   UNL     1      69.333  81.365  53.406  0.00  0.00    +0.000 OA
ATOM      5  C   UNL     1      69.676  81.028  52.736  0.00  0.00    +0.000 A 
ATOM      6  C   UNL     1      70.470  81.169  52.564  0.00  0.00    +0.000 A 
ATOM      7  C   UNL     1      70.813  80.832  51.893  0.00  0.00    +0.000 A 
ATOM      8  C   UNL     1      70.362  80.354  51.394  0.00  0.00    +0.000 A 
ATOM      9  C   UNL     1      69.568  80.213  51.567  0.00  0.00    +0.000 A 
ATOM     10  C   UNL     1      69.225  80.550  52.237  0.00  0.00    +0.000 A 
ATOM     11  C   UNL     1      70.705  80.017  50.724  0.00  0.00    +0.000 C 
ATOM     12  C   UNL     1      70.253  79.539  50.226  0.00  0.00    +0.000 C 
ATOM     13  C   UNL     1      70.596  79.202  49.556  0.00  0.00    +0.000 C 
ATOM     14  C   UNL     1      71.391  79.343  49.384  0.00  0.00    +0.000 C 
ATOM     15  C   UNL     1      71.010  78.856  48.837  0.00  0.00    +0.000 C 
ATOM     16  C   UNL     1      71.875  79.087  48.767  0.00  0.00    +0.000 C 
ATOM     17  C   UNL     1      72.627  79.407  48.884  0.00  0.00    +0.000 C 
ATOM     18  C   UNL     1      72.606  79.860  49.573  0.00  0.00    +0.000 C 
ATOM     19  C   UNL     1      71.843  79.821  49.882  0.00  0.00    +0.000 C 
ATOM     20  C   UNL     1      71.499  80.158  50.553  0.00  0.00    +0.000 C 
ATOM     21  C   UNL     1      71.951  80.636  51.051  0.00  0.00    +0.000 C 
ATOM     22  C   UNL     1      71.608  80.972  51.721  0.00  0.00    +0.000 C 
ATOM     23  O   UNL     1      71.649  78.598  48.142  0.00  0.00    +0.000 OA
ATOM     24  C   UNL     1      70.874  78.319  48.098  0.00  0.00    +0.000 C 
ENDROOT
TORSDOF 0
ENDMDL
