MODEL 1
REMARK VINA RESULT:    -9.116      0.000      0.000
REMARK INTER + INTRA:          -9.116
REMARK INTER:                  -9.116
REMARK INTRA:                   0.000
REMARK UNBOUND:                 0.000
ROOT
REMARK  Name = pronilide
REMARK                            x       y       z     vdW  Elec       q    Type
REMARK                         _______ _______ _______ _____ _____    ______ ____
ATOM      1  C   UNL     1      61.767  63.685  68.405  0.00  0.00    +0.000 C 
ATOM      2  C   UNL     1      61.240  63.292  67.907  0.00  0.00    +0.000 C 
ATOM      3  C   UNL     1      61.498  63.009  67.176  0.00  0.00    +0.000 C 
ATOM      4  O   UNL     1      60.971  62.616  66.676  0.00  0.00    +0.000 OA
ATOM      5  C   UNL     1      61.228  62.333  65.946  0.00  0.00    +0.000 A 
ATOM      6  C   UNL     1      60.702  61.940  65.447  0.00  0.00    +0.000 A 
ATOM      7  N   UNL     1      59.919  61.830  65.680  0.00  0.00    +0.000 NA
ATOM      8  C   UNL     1      59.661  62.113  66.410  0.00  0.00    +0.000 C 
ATOM      9  C   UNL     1      60.187  62.506  66.909  0.00  0.00    +0.000 C 
ATOM     10  O   UNL     1      58.877  62.003  66.642  0.00  0.00    +0.000 OA
ATOM     11  C   UNL     1      60.960  61.657  64.716  0.00  0.00    +0.000 A 
ATOM     12  C   UNL     1      61.743  61.767  64.484  0.00  0.00    +0.000 A 
ATOM     13  C   UNL     1      62.270  62.160  64.983  0.00  0.00    +0.000 A 
ATOM     14  C   UNL     1      62.013  62.443  65.714  0.00  0.00    +0.000 A 
ATOM     15  N   UNL     1      62.001  61.484  63.753  0.00  0.00    +0.000 N 
ATOM     16  O   UNL     1      61.475  61.091  63.254  0.00  0.00    +0.000 OA
ATOM     17  O   UNL     1      62.785  61.594  63.521  0.00  0.00    +0.000 OA
ENDROOT
TORSDOF 0
ENDMDL
MODEL 2
REMARK VINA RESULT:    -8.354      1.675      3.612
REMARK INTER + INTRA:          -8.354
REMARK INTER:                  -8.354
REMARK INTRA:                   0.000
REMARK UNBOUND:                 0.000
ROOT
REMARK  Name = pronilide
REMARK                            x       y       z     vdW  Elec       q    Type
REMARK                         _______ _______ _______ _____ _____    ______ ____
ATOM      1  C   UNL     1      62.368  62.041  64.652  0.00  0.00    +0.000 C 
ATOM      2  C   UNL     1      61.670  62.063  65.091  0.00  0.00    +0.000 C 
ATOM      3  C   UNL     1      61.671  62.390  65.849  0.00  0.00    +0.000 C 
ATOM      4  O   UNL     1      60.972  62.413  66.289  0.00  0.00    +0.000 OA
ATOM      5  C   UNL     1      60.973  62.739  67.046  0.00  0.00    +0.000 A 
ATOM      6  C   UNL     1      60.276  62.762  67.486  0.00  0.00    +0.000 A 
ATOM      7  N   UNL     1      59.578  62.459  67.168  0.00  0.00    +0.000 NA
ATOM      8  C   UNL     1      59.578  62.132  66.411  0.00  0.00    +0.000 C 
ATOM      9  C   UNL     1      60.275  62.109  65.971  0.00  0.00    +0.000 C 
ATOM     10  O   UNL     1      58.879  61.828  66.093  0.00  0.00    +0.000 OA
ATOM     11  C   UNL     1      60.276  63.089  68.244  0.00  0.00    +0.000 A 
ATOM     12  C   UNL     1      60.974  63.392  68.561  0.00  0.00    +0.000 A 
ATOM     13  C   UNL     1      61.672  63.369  68.122  0.00  0.00    +0.000 A 
ATOM     14  C   UNL     1      61.672  63.043  67.364  0.00  0.00    +0.000 A 
ATOM     15  N   UNL     1      60.974  63.719  69.320  0.00  0.00    +0.000 N 
ATOM     16  O   UNL     1      60.277  63.742  69.759  0.00  0.00    +0.000 OA
ATOM     17  O   UNL     1      61.673  64.022  69.637  0.00  0.00    +0.000 OA
ENDROOT
TORSDOF 0
ENDMDL
MODEL 3
REMARK VINA RESULT:    -8.183      2.112      3.237
REMARK INTER + INTRA:          -8.183
REMARK INTER:                  -8.183
REMARK INTRA:                   0.000
REMARK UNBOUND:                 0.000
ROOT
REMARK  Name = pronilide
REMARK                            x       y       z     vdW  Elec       q    Type
REMARK                         _______ _______ _______ _____ _____    ______ ____
ATOM      1  C   UNL     1      60.180  61.607  71.011  0.00  0.00    +0.000 C 
ATOM      2  C   UNL     1      60.617  62.158  70.577  0.00  0.00    +0.000 C 
ATOM      3  C   UNL     1      60.633  62.115  69.754  0.00  0.00    +0.000 C 
ATOM      4  O   UNL     1      61.069  62.665  69.320  0.00  0.00    +0.000 OA
ATOM      5  C   UNL     1      61.085  62.622  68.497  0.00  0.00    +0.000 A 
ATOM      6  C   UNL     1      61.521  63.172  68.063  0.00  0.00    +0.000 A 
ATOM      7  N   UNL     1      61.940  63.764  68.454  0.00  0.00    +0.000 NA
ATOM      8  C   UNL     1      61.925  63.808  69.276  0.00  0.00    +0.000 C 
ATOM      9  C   UNL     1      61.489  63.258  69.710  0.00  0.00    +0.000 C 
ATOM     10  O   UNL     1      62.345  64.401  69.667  0.00  0.00    +0.000 OA
ATOM     11  C   UNL     1      61.537  63.128  67.239  0.00  0.00    +0.000 A 
ATOM     12  C   UNL     1      61.117  62.536  66.850  0.00  0.00    +0.000 A 
ATOM     13  C   UNL     1      60.680  61.985  67.283  0.00  0.00    +0.000 A 
ATOM     14  C   UNL     1      60.665  62.028  68.106  0.00  0.00    +0.000 A 
ATOM     15  N   UNL     1      61.133  62.492  66.025  0.00  0.00    +0.000 N 
ATOM     16  O   UNL     1      61.568  63.042  65.592  0.00  0.00    +0.000 OA
ATOM     17  O   UNL     1      60.712  61.899  65.635  0.00  0.00    +0.000 OA
ENDROOT
TORSDOF 0
ENDMDL
MODEL 4
REMARK VINA RESULT:    -7.938      3.310      5.041
REMARK INTER + INTRA:          -7.938
REMARK INTER:                  -7.938
REMARK INTRA:                   0.000
REMARK UNBOUND:                 0.000
ROOT
REMARK  Name = pronilide
REMARK                            x       y       z     vdW  Elec       q    Type
REMARK                         _______ _______ _______ _____ _____    ______ ____
ATOM      1  C   UNL     1      59.611  62.171  66.577  0.00  0.00    +0.000 C 
ATOM      2  C   UNL     1      59.782  62.716  67.172  0.00  0.00    +0.000 C 
ATOM      3  C   UNL     1      60.052  62.455  67.906  0.00  0.00    +0.000 C 
ATOM      4  O   UNL     1      60.223  63.000  68.502  0.00  0.00    +0.000 OA
ATOM      5  C   UNL     1      60.493  62.739  69.235  0.00  0.00    +0.000 A 
ATOM      6  C   UNL     1      60.664  63.284  69.831  0.00  0.00    +0.000 A 
ATOM      7  N   UNL     1      60.565  64.090  69.691  0.00  0.00    +0.000 NA
ATOM      8  C   UNL     1      60.295  64.352  68.957  0.00  0.00    +0.000 C 
ATOM      9  C   UNL     1      60.124  63.807  68.362  0.00  0.00    +0.000 C 
ATOM     10  O   UNL     1      60.196  65.160  68.818  0.00  0.00    +0.000 OA
ATOM     11  C   UNL     1      60.934  63.022  70.565  0.00  0.00    +0.000 A 
ATOM     12  C   UNL     1      61.033  62.215  70.704  0.00  0.00    +0.000 A 
ATOM     13  C   UNL     1      60.862  61.669  70.109  0.00  0.00    +0.000 A 
ATOM     14  C   UNL     1      60.592  61.931  69.375  0.00  0.00    +0.000 A 
ATOM     15  N   UNL     1      61.303  61.953  71.439  0.00  0.00    +0.000 N 
ATOM     16  O   UNL     1      61.474  62.498  72.033  0.00  0.00    +0.000 OA
ATOM     17  O   UNL     1      61.402  61.146  71.578  0.00  0.00    +0.000 OA
ENDROOT
TORSDOF 0
ENDMDL
MODEL 5
REMARK VINA RESULT:    -7.913      1.774      2.251
REMARK INTER + INTRA:          -7.913
REMARK INTER:                  -7.913
REMARK INTRA:                   0.000
REMARK UNBOUND:                 0.000
ROOT
REMARK  Name = pronilide
REMARK                            x       y       z     vdW  Elec       q    Type
REMARK                         _______ _______ _______ _____ _____    ______ ____
ATOM      1  C   UNL     1      60.186  65.355  69.101  0.00  0.00    +0.000 C 
ATOM      2  C   UNL     1      60.253  64.533  69.081  0.00  0.00    +0.000 C 
ATOM      3  C   UNL     1      60.543  64.160  68.404  0.00  0.00    +0.000 C 
ATOM      4  O   UNL     1      60.610  63.337  68.383  0.00  0.00    +0.000 OA
ATOM      5  C   UNL     1      60.899  62.964  67.708  0.00  0.00    +0.000 A 
ATOM      6  C   UNL     1      60.967  62.143  67.687  0.00  0.00    +0.000 A 
ATOM      7  N   UNL     1      60.744  61.695  68.342  0.00  0.00    +0.000 NA
ATOM      8  C   UNL     1      60.455  62.067  69.018  0.00  0.00    +0.000 C 
ATOM      9  C   UNL     1      60.388  62.889  69.039  0.00  0.00    +0.000 C 
ATOM     10  O   UNL     1      60.232  61.618  69.674  0.00  0.00    +0.000 OA
ATOM     11  C   UNL     1      61.256  61.769  67.010  0.00  0.00    +0.000 A 
ATOM     12  C   UNL     1      61.478  62.218  66.355  0.00  0.00    +0.000 A 
ATOM     13  C   UNL     1      61.411  63.040  66.375  0.00  0.00    +0.000 A 
ATOM     14  C   UNL     1      61.122  63.413  67.052  0.00  0.00    +0.000 A 
ATOM     15  N   UNL     1      61.768  61.844  65.678  0.00  0.00    +0.000 N 
ATOM     16  O   UNL     1      61.835  61.023  65.658  0.00  0.00    +0.000 OA
ATOM     17  O   UNL     1      61.991  62.294  65.023  0.00  0.00    +0.000 OA
ENDROOT
TORSDOF 0
ENDMDL
MODEL 6
REMARK VINA RESULT:    -7.797      3.426      4.873
REMARK INTER + INTRA:          -7.797
REMARK INTER:                  -7.797
REMARK INTRA:                   0.000
REMARK UNBOUND:                 0.000
ROOT
REMARK  Name = pronilide
REMARK                            x       y       z     vdW  Elec       q    Type
REMARK                         _______ _______ _______ _____ _____    ______ ____
ATOM      1  C   UNL     1      61.642  62.405  73.017  0.00  0.00    +0.000 C 
ATOM      2  C   UNL     1      61.387  62.973  72.476  0.00  0.00    +0.000 C 
ATOM      3  C   UNL     1      61.177  62.749  71.710  0.00  0.00    +0.000 C 
ATOM      4  O   UNL     1      60.922  63.317  71.169  0.00  0.00    +0.000 OA
ATOM      5  C   UNL     1      60.712  63.093  70.404  0.00  0.00    +0.000 A 
ATOM      6  C   UNL     1      60.457  63.661  69.862  0.00  0.00    +0.000 A 
ATOM      7  N   UNL     1      60.413  64.453  70.087  0.00  0.00    +0.000 NA
ATOM      8  C   UNL     1      60.622  64.677  70.852  0.00  0.00    +0.000 C 
ATOM      9  C   UNL     1      60.877  64.110  71.394  0.00  0.00    +0.000 C 
ATOM     10  O   UNL     1      60.578  65.471  71.077  0.00  0.00    +0.000 OA
ATOM     11  C   UNL     1      60.247  63.436  69.097  0.00  0.00    +0.000 A 
ATOM     12  C   UNL     1      60.292  62.644  68.873  0.00  0.00    +0.000 A 
ATOM     13  C   UNL     1      60.547  62.075  69.414  0.00  0.00    +0.000 A 
ATOM     14  C   UNL     1      60.757  62.300  70.179  0.00  0.00    +0.000 A 
ATOM     15  N   UNL     1      60.082  62.420  68.106  0.00  0.00    +0.000 N 
ATOM     16  O   UNL     1      59.827  62.987  67.566  0.00  0.00    +0.000 OA
ATOM     17  O   UNL     1      60.127  61.627  67.882  0.00  0.00    +0.000 OA
ENDROOT
TORSDOF 0
ENDMDL
MODEL 7
REMARK VINA RESULT:    -7.727      5.396      7.172
REMARK INTER + INTRA:          -7.727
REMARK INTER:                  -7.727
REMARK INTRA:                   0.000
REMARK UNBOUND:                 0.000
ROOT
REMARK  Name = pronilide
REMARK                            x       y       z     vdW  Elec       q    Type
REMARK                         _______ _______ _______ _____ _____    ______ ____
ATOM      1  C   UNL     1      66.544  67.720  69.889  0.00  0.00    +0.000 C 
ATOM      2  C   UNL     1      65.920  67.526  70.392  0.00  0.00    +0.000 C 
ATOM      3  C   UNL     1      65.401  66.917  70.191  0.00  0.00    +0.000 C 
ATOM      4  O   UNL     1      64.776  66.723  70.694  0.00  0.00    +0.000 OA
ATOM      5  C   UNL     1      64.259  66.114  70.493  0.00  0.00    +0.000 A 
ATOM      6  C   UNL     1      63.634  65.920  70.995  0.00  0.00    +0.000 A 
ATOM      7  N   UNL     1      63.528  66.336  71.700  0.00  0.00    +0.000 NA
ATOM      8  C   UNL     1      64.046  66.945  71.901  0.00  0.00    +0.000 C 
ATOM      9  C   UNL     1      64.670  67.139  71.398  0.00  0.00    +0.000 C 
ATOM     10  O   UNL     1      63.939  67.361  72.606  0.00  0.00    +0.000 OA
ATOM     11  C   UNL     1      63.116  65.310  70.794  0.00  0.00    +0.000 A 
ATOM     12  C   UNL     1      63.222  64.895  70.090  0.00  0.00    +0.000 A 
ATOM     13  C   UNL     1      63.847  65.088  69.586  0.00  0.00    +0.000 A 
ATOM     14  C   UNL     1      64.365  65.698  69.788  0.00  0.00    +0.000 A 
ATOM     15  N   UNL     1      62.704  64.285  69.888  0.00  0.00    +0.000 N 
ATOM     16  O   UNL     1      62.080  64.091  70.391  0.00  0.00    +0.000 OA
ATOM     17  O   UNL     1      62.811  63.869  69.183  0.00  0.00    +0.000 OA
ENDROOT
TORSDOF 0
ENDMDL
MODEL 8
REMARK VINA RESULT:    -7.684      4.819      6.638
REMARK INTER + INTRA:          -7.684
REMARK INTER:                  -7.684
REMARK INTRA:                   0.000
REMARK UNBOUND:                 0.000
ROOT
REMARK  Name = pronilide
REMARK                            x       y       z     vdW  Elec       q    Type
REMARK                         _______ _______ _______ _____ _____    ______ ____
ATOM      1  C   UNL     1      61.476  63.765  72.580  0.00  0.00    +0.000 C 
ATOM      2  C   UNL     1      61.788  63.878  71.824  0.00  0.00    +0.000 C 
ATOM      3  C   UNL     1      62.396  64.422  71.706  0.00  0.00    +0.000 C 
ATOM      4  O   UNL     1      62.709  64.535  70.951  0.00  0.00    +0.000 OA
ATOM      5  C   UNL     1      63.317  65.079  70.833  0.00  0.00    +0.000 A 
ATOM      6  C   UNL     1      63.629  65.192  70.078  0.00  0.00    +0.000 A 
ATOM      7  N   UNL     1      63.333  64.761  69.441  0.00  0.00    +0.000 NA
ATOM      8  C   UNL     1      62.725  64.217  69.559  0.00  0.00    +0.000 C 
ATOM      9  C   UNL     1      62.412  64.104  70.313  0.00  0.00    +0.000 C 
ATOM     10  O   UNL     1      62.428  63.785  68.920  0.00  0.00    +0.000 OA
ATOM     11  C   UNL     1      64.238  65.737  69.961  0.00  0.00    +0.000 A 
ATOM     12  C   UNL     1      64.534  66.168  70.598  0.00  0.00    +0.000 A 
ATOM     13  C   UNL     1      64.222  66.055  71.354  0.00  0.00    +0.000 A 
ATOM     14  C   UNL     1      63.614  65.511  71.471  0.00  0.00    +0.000 A 
ATOM     15  N   UNL     1      65.144  66.713  70.481  0.00  0.00    +0.000 N 
ATOM     16  O   UNL     1      65.456  66.825  69.726  0.00  0.00    +0.000 OA
ATOM     17  O   UNL     1      65.440  67.144  71.119  0.00  0.00    +0.000 OA
ENDROOT
TORSDOF 0
ENDMDL
MODEL 9
REMARK VINA RESULT:    -7.683      6.143      6.934
REMARK INTER + INTRA:          -7.683
REMARK INTER:                  -7.683
REMARK INTRA:                   0.000
REMARK UNBOUND:                 0.000
ROOT
REMARK  Name = pronilide
REMARK                            x       y       z     vdW  Elec       q    Type
REMARK                         _______ _______ _______ _____ _____    ______ ____
ATOM      1  C   UNL     1      61.259  62.878  72.501  0.00  0.00    +0.000 C 
ATOM      2  C   UNL     1      61.515  63.662  72.517  0.00  0.00    +0.000 C 
ATOM      3  C   UNL     1      62.066  63.927  71.963  0.00  0.00    +0.000 C 
ATOM      4  O   UNL     1      62.322  64.712  71.979  0.00  0.00    +0.000 OA
ATOM      5  C   UNL     1      62.872  64.977  71.425  0.00  0.00    +0.000 A 
ATOM      6  C   UNL     1      63.129  65.761  71.441  0.00  0.00    +0.000 A 
ATOM      7  N   UNL     1      62.834  66.279  72.011  0.00  0.00    +0.000 NA
ATOM      8  C   UNL     1      62.284  66.014  72.564  0.00  0.00    +0.000 C 
ATOM      9  C   UNL     1      62.027  65.230  72.549  0.00  0.00    +0.000 C 
ATOM     10  O   UNL     1      61.989  66.533  73.134  0.00  0.00    +0.000 OA
ATOM     11  C   UNL     1      63.680  66.026  70.887  0.00  0.00    +0.000 A 
ATOM     12  C   UNL     1      63.974  65.507  70.318  0.00  0.00    +0.000 A 
ATOM     13  C   UNL     1      63.718  64.723  70.301  0.00  0.00    +0.000 A 
ATOM     14  C   UNL     1      63.168  64.458  70.855  0.00  0.00    +0.000 A 
ATOM     15  N   UNL     1      64.526  65.773  69.763  0.00  0.00    +0.000 N 
ATOM     16  O   UNL     1      64.782  66.556  69.779  0.00  0.00    +0.000 OA
ATOM     17  O   UNL     1      64.820  65.253  69.194  0.00  0.00    +0.000 OA
ENDROOT
TORSDOF 0
ENDMDL
