MODEL 1
REMARK VINA RESULT:   -10.677      0.000      0.000
REMARK INTER + INTRA:         -10.677
REMARK INTER:                 -10.677
REMARK INTRA:                   0.000
REMARK UNBOUND:                 0.000
ROOT
REMARK  Name = propipocaine
REMARK                            x       y       z     vdW  Elec       q    Type
REMARK                         _______ _______ _______ _____ _____    ______ ____
ATOM      1  C   UNL     1      59.536  64.250  71.606  0.00  0.00    +0.000 C 
ATOM      2  C   UNL     1      60.222  64.280  71.150  0.00  0.00    +0.000 C 
ATOM      3  C   UNL     1      60.235  63.938  70.400  0.00  0.00    +0.000 C 
ATOM      4  O   UNL     1      60.923  63.968  69.944  0.00  0.00    +0.000 OA
ATOM      5  C   UNL     1      60.936  63.625  69.193  0.00  0.00    +0.000 A 
ATOM      6  C   UNL     1      61.622  63.656  68.738  0.00  0.00    +0.000 A 
ATOM      7  C   UNL     1      61.635  63.313  67.988  0.00  0.00    +0.000 A 
ATOM      8  C   UNL     1      60.962  62.940  67.692  0.00  0.00    +0.000 A 
ATOM      9  C   UNL     1      60.274  62.910  68.148  0.00  0.00    +0.000 A 
ATOM     10  C   UNL     1      60.261  63.252  68.899  0.00  0.00    +0.000 A 
ATOM     11  C   UNL     1      60.975  62.598  66.943  0.00  0.00    +0.000 C 
ATOM     12  O   UNL     1      61.661  62.628  66.487  0.00  0.00    +0.000 OA
ATOM     13  C   UNL     1      60.300  62.225  66.648  0.00  0.00    +0.000 C 
ATOM     14  C   UNL     1      60.313  61.882  65.897  0.00  0.00    +0.000 C 
ATOM     15  N   UNL     1      61.000  61.913  65.442  0.00  0.00    +0.000 NA
ATOM     16  C   UNL     1      61.674  62.285  65.737  0.00  0.00    +0.000 C 
ATOM     17  C   UNL     1      62.361  62.316  65.282  0.00  0.00    +0.000 C 
ATOM     18  C   UNL     1      62.374  61.973  64.530  0.00  0.00    +0.000 C 
ATOM     19  C   UNL     1      61.700  61.600  64.236  0.00  0.00    +0.000 C 
ATOM     20  C   UNL     1      61.013  61.570  64.691  0.00  0.00    +0.000 C 
ENDROOT
TORSDOF 0
ENDMDL
MODEL 2
REMARK VINA RESULT:   -10.266      1.685      5.004
REMARK INTER + INTRA:         -10.266
REMARK INTER:                 -10.266
REMARK INTRA:                   0.000
REMARK UNBOUND:                 0.000
ROOT
REMARK  Name = propipocaine
REMARK                            x       y       z     vdW  Elec       q    Type
REMARK                         _______ _______ _______ _____ _____    ______ ____
ATOM      1  C   UNL     1      60.871  61.244  64.603  0.00  0.00    +0.000 C 
ATOM      2  C   UNL     1      61.183  61.872  65.037  0.00  0.00    +0.000 C 
ATOM      3  C   UNL     1      61.070  61.906  65.854  0.00  0.00    +0.000 C 
ATOM      4  O   UNL     1      61.383  62.535  66.287  0.00  0.00    +0.000 OA
ATOM      5  C   UNL     1      61.270  62.568  67.105  0.00  0.00    +0.000 A 
ATOM      6  C   UNL     1      61.583  63.196  67.538  0.00  0.00    +0.000 A 
ATOM      7  C   UNL     1      61.470  63.230  68.355  0.00  0.00    +0.000 A 
ATOM      8  C   UNL     1      61.045  62.635  68.738  0.00  0.00    +0.000 A 
ATOM      9  C   UNL     1      60.732  62.007  68.304  0.00  0.00    +0.000 A 
ATOM     10  C   UNL     1      60.845  61.973  67.487  0.00  0.00    +0.000 A 
ATOM     11  C   UNL     1      60.932  62.669  69.554  0.00  0.00    +0.000 C 
ATOM     12  O   UNL     1      61.244  63.297  69.988  0.00  0.00    +0.000 OA
ATOM     13  C   UNL     1      60.507  62.074  69.937  0.00  0.00    +0.000 C 
ATOM     14  C   UNL     1      60.394  62.108  70.753  0.00  0.00    +0.000 C 
ATOM     15  N   UNL     1      60.707  62.736  71.187  0.00  0.00    +0.000 NA
ATOM     16  C   UNL     1      61.132  63.331  70.805  0.00  0.00    +0.000 C 
ATOM     17  C   UNL     1      61.444  63.958  71.238  0.00  0.00    +0.000 C 
ATOM     18  C   UNL     1      61.331  63.992  72.056  0.00  0.00    +0.000 C 
ATOM     19  C   UNL     1      60.906  63.398  72.438  0.00  0.00    +0.000 C 
ATOM     20  C   UNL     1      60.594  62.770  72.004  0.00  0.00    +0.000 C 
ENDROOT
TORSDOF 0
ENDMDL
MODEL 3
REMARK VINA RESULT:   -10.188      4.195      5.842
REMARK INTER + INTRA:         -10.188
REMARK INTER:                 -10.188
REMARK INTRA:                   0.000
REMARK UNBOUND:                 0.000
ROOT
REMARK  Name = propipocaine
REMARK                            x       y       z     vdW  Elec       q    Type
REMARK                         _______ _______ _______ _____ _____    ______ ____
ATOM      1  C   UNL     1      60.432  61.692  70.528  0.00  0.00    +0.000 C 
ATOM      2  C   UNL     1      60.692  62.269  71.058  0.00  0.00    +0.000 C 
ATOM      3  C   UNL     1      61.292  62.791  70.838  0.00  0.00    +0.000 C 
ATOM      4  O   UNL     1      61.551  63.367  71.369  0.00  0.00    +0.000 OA
ATOM      5  C   UNL     1      62.151  63.890  71.149  0.00  0.00    +0.000 A 
ATOM      6  C   UNL     1      62.410  64.466  71.679  0.00  0.00    +0.000 A 
ATOM      7  C   UNL     1      63.010  64.988  71.460  0.00  0.00    +0.000 A 
ATOM      8  C   UNL     1      63.351  64.934  70.711  0.00  0.00    +0.000 A 
ATOM      9  C   UNL     1      63.091  64.357  70.180  0.00  0.00    +0.000 A 
ATOM     10  C   UNL     1      62.491  63.835  70.400  0.00  0.00    +0.000 A 
ATOM     11  C   UNL     1      63.950  65.456  70.492  0.00  0.00    +0.000 C 
ATOM     12  O   UNL     1      64.210  66.032  71.021  0.00  0.00    +0.000 OA
ATOM     13  C   UNL     1      64.291  65.402  69.741  0.00  0.00    +0.000 C 
ATOM     14  C   UNL     1      64.891  65.924  69.522  0.00  0.00    +0.000 C 
ATOM     15  N   UNL     1      65.150  66.500  70.053  0.00  0.00    +0.000 NA
ATOM     16  C   UNL     1      64.810  66.555  70.802  0.00  0.00    +0.000 C 
ATOM     17  C   UNL     1      65.069  67.130  71.332  0.00  0.00    +0.000 C 
ATOM     18  C   UNL     1      65.670  67.653  71.112  0.00  0.00    +0.000 C 
ATOM     19  C   UNL     1      66.010  67.599  70.363  0.00  0.00    +0.000 C 
ATOM     20  C   UNL     1      65.751  67.023  69.833  0.00  0.00    +0.000 C 
ENDROOT
TORSDOF 0
ENDMDL
MODEL 4
REMARK VINA RESULT:   -10.104      3.371      4.977
REMARK INTER + INTRA:         -10.104
REMARK INTER:                 -10.104
REMARK INTRA:                   0.000
REMARK UNBOUND:                 0.000
ROOT
REMARK  Name = propipocaine
REMARK                            x       y       z     vdW  Elec       q    Type
REMARK                         _______ _______ _______ _____ _____    ______ ____
ATOM      1  C   UNL     1      66.328  67.875  69.822  0.00  0.00    +0.000 C 
ATOM      2  C   UNL     1      65.981  67.391  70.393  0.00  0.00    +0.000 C 
ATOM      3  C   UNL     1      65.385  66.862  70.180  0.00  0.00    +0.000 C 
ATOM      4  O   UNL     1      65.039  66.378  70.752  0.00  0.00    +0.000 OA
ATOM      5  C   UNL     1      64.442  65.849  70.538  0.00  0.00    +0.000 A 
ATOM      6  C   UNL     1      64.096  65.366  71.109  0.00  0.00    +0.000 A 
ATOM      7  C   UNL     1      63.500  64.837  70.896  0.00  0.00    +0.000 A 
ATOM      8  C   UNL     1      63.249  64.793  70.112  0.00  0.00    +0.000 A 
ATOM      9  C   UNL     1      63.595  65.277  69.540  0.00  0.00    +0.000 A 
ATOM     10  C   UNL     1      64.191  65.806  69.753  0.00  0.00    +0.000 A 
ATOM     11  C   UNL     1      62.653  64.265  69.899  0.00  0.00    +0.000 C 
ATOM     12  O   UNL     1      62.306  63.781  70.470  0.00  0.00    +0.000 OA
ATOM     13  C   UNL     1      62.402  64.221  69.113  0.00  0.00    +0.000 C 
ATOM     14  C   UNL     1      61.805  63.692  68.900  0.00  0.00    +0.000 C 
ATOM     15  N   UNL     1      61.459  63.208  69.472  0.00  0.00    +0.000 NA
ATOM     16  C   UNL     1      61.710  63.252  70.256  0.00  0.00    +0.000 C 
ATOM     17  C   UNL     1      61.364  62.768  70.827  0.00  0.00    +0.000 C 
ATOM     18  C   UNL     1      60.767  62.239  70.614  0.00  0.00    +0.000 C 
ATOM     19  C   UNL     1      60.517  62.195  69.830  0.00  0.00    +0.000 C 
ATOM     20  C   UNL     1      60.862  62.679  69.259  0.00  0.00    +0.000 C 
ENDROOT
TORSDOF 0
ENDMDL
MODEL 5
REMARK VINA RESULT:    -8.914      5.633      7.008
REMARK INTER + INTRA:          -8.914
REMARK INTER:                  -8.914
REMARK INTRA:                   0.000
REMARK UNBOUND:                 0.000
ROOT
REMARK  Name = propipocaine
REMARK                            x       y       z     vdW  Elec       q    Type
REMARK                         _______ _______ _______ _____ _____    ______ ____
ATOM      1  C   UNL     1      66.281  67.185  71.449  0.00  0.00    +0.000 C 
ATOM      2  C   UNL     1      65.761  66.573  71.259  0.00  0.00    +0.000 C 
ATOM      3  C   UNL     1      64.977  66.603  71.513  0.00  0.00    +0.000 C 
ATOM      4  O   UNL     1      64.459  65.990  71.322  0.00  0.00    +0.000 OA
ATOM      5  C   UNL     1      63.673  66.020  71.576  0.00  0.00    +0.000 A 
ATOM      6  C   UNL     1      63.155  65.408  71.385  0.00  0.00    +0.000 A 
ATOM      7  C   UNL     1      62.370  65.438  71.639  0.00  0.00    +0.000 A 
ATOM      8  C   UNL     1      62.104  66.080  72.084  0.00  0.00    +0.000 A 
ATOM      9  C   UNL     1      62.624  66.693  72.274  0.00  0.00    +0.000 A 
ATOM     10  C   UNL     1      63.408  66.663  72.020  0.00  0.00    +0.000 A 
ATOM     11  C   UNL     1      61.321  66.110  72.337  0.00  0.00    +0.000 C 
ATOM     12  O   UNL     1      60.802  65.498  72.147  0.00  0.00    +0.000 OA
ATOM     13  C   UNL     1      61.055  66.753  72.782  0.00  0.00    +0.000 C 
ATOM     14  C   UNL     1      60.271  66.783  73.036  0.00  0.00    +0.000 C 
ATOM     15  N   UNL     1      59.752  66.170  72.845  0.00  0.00    +0.000 NA
ATOM     16  C   UNL     1      60.017  65.528  72.401  0.00  0.00    +0.000 C 
ATOM     17  C   UNL     1      59.499  64.916  72.210  0.00  0.00    +0.000 C 
ATOM     18  C   UNL     1      58.714  64.946  72.465  0.00  0.00    +0.000 C 
ATOM     19  C   UNL     1      58.449  65.588  72.909  0.00  0.00    +0.000 C 
ATOM     20  C   UNL     1      58.967  66.200  73.099  0.00  0.00    +0.000 C 
ENDROOT
TORSDOF 0
ENDMDL
MODEL 6
REMARK VINA RESULT:    -8.134     23.931     25.592
REMARK INTER + INTRA:          -8.134
REMARK INTER:                  -8.134
REMARK INTRA:                   0.000
REMARK UNBOUND:                 0.000
ROOT
REMARK  Name = propipocaine
REMARK                            x       y       z     vdW  Elec       q    Type
REMARK                         _______ _______ _______ _____ _____    ______ ____
ATOM      1  C   UNL     1      72.192  78.861  48.124  0.00  0.00    +0.000 C 
ATOM      2  C   UNL     1      71.413  78.837  48.395  0.00  0.00    +0.000 C 
ATOM      3  C   UNL     1      71.213  79.197  49.109  0.00  0.00    +0.000 C 
ATOM      4  O   UNL     1      70.433  79.173  49.379  0.00  0.00    +0.000 OA
ATOM      5  C   UNL     1      70.233  79.534  50.094  0.00  0.00    +0.000 A 
ATOM      6  C   UNL     1      69.454  79.510  50.364  0.00  0.00    +0.000 A 
ATOM      7  C   UNL     1      69.254  79.870  51.078  0.00  0.00    +0.000 A 
ATOM      8  C   UNL     1      69.832  80.254  51.524  0.00  0.00    +0.000 A 
ATOM      9  C   UNL     1      70.612  80.278  51.253  0.00  0.00    +0.000 A 
ATOM     10  C   UNL     1      70.812  79.918  50.539  0.00  0.00    +0.000 A 
ATOM     11  C   UNL     1      69.632  80.614  52.237  0.00  0.00    +0.000 C 
ATOM     12  O   UNL     1      68.853  80.590  52.508  0.00  0.00    +0.000 OA
ATOM     13  C   UNL     1      70.212  80.998  52.683  0.00  0.00    +0.000 C 
ATOM     14  C   UNL     1      70.011  81.358  53.397  0.00  0.00    +0.000 C 
ATOM     15  N   UNL     1      69.232  81.334  53.667  0.00  0.00    +0.000 NA
ATOM     16  C   UNL     1      68.653  80.950  53.222  0.00  0.00    +0.000 C 
ATOM     17  C   UNL     1      67.874  80.926  53.492  0.00  0.00    +0.000 C 
ATOM     18  C   UNL     1      67.674  81.287  54.207  0.00  0.00    +0.000 C 
ATOM     19  C   UNL     1      68.252  81.671  54.652  0.00  0.00    +0.000 C 
ATOM     20  C   UNL     1      69.031  81.695  54.382  0.00  0.00    +0.000 C 
ENDROOT
TORSDOF 0
ENDMDL
MODEL 7
REMARK VINA RESULT:    -8.056     13.561     16.068
REMARK INTER + INTRA:          -8.056
REMARK INTER:                  -8.056
REMARK INTRA:                   0.000
REMARK UNBOUND:                 0.000
ROOT
REMARK  Name = propipocaine
REMARK                            x       y       z     vdW  Elec       q    Type
REMARK                         _______ _______ _______ _____ _____    ______ ____
ATOM      1  C   UNL     1      61.324  70.681  49.235  0.00  0.00    +0.000 C 
ATOM      2  C   UNL     1      61.517  69.970  49.605  0.00  0.00    +0.000 C 
ATOM      3  C   UNL     1      61.627  69.945  50.423  0.00  0.00    +0.000 C 
ATOM      4  O   UNL     1      61.820  69.233  50.792  0.00  0.00    +0.000 OA
ATOM      5  C   UNL     1      61.930  69.209  51.610  0.00  0.00    +0.000 A 
ATOM      6  C   UNL     1      62.123  68.497  51.979  0.00  0.00    +0.000 A 
ATOM      7  C   UNL     1      62.232  68.473  52.796  0.00  0.00    +0.000 A 
ATOM      8  C   UNL     1      62.149  69.160  53.244  0.00  0.00    +0.000 A 
ATOM      9  C   UNL     1      61.956  69.873  52.875  0.00  0.00    +0.000 A 
ATOM     10  C   UNL     1      61.846  69.897  52.057  0.00  0.00    +0.000 A 
ATOM     11  C   UNL     1      62.259  69.136  54.061  0.00  0.00    +0.000 C 
ATOM     12  O   UNL     1      62.452  68.425  54.431  0.00  0.00    +0.000 OA
ATOM     13  C   UNL     1      62.176  69.824  54.509  0.00  0.00    +0.000 C 
ATOM     14  C   UNL     1      62.286  69.800  55.326  0.00  0.00    +0.000 C 
ATOM     15  N   UNL     1      62.479  69.088  55.695  0.00  0.00    +0.000 NA
ATOM     16  C   UNL     1      62.562  68.400  55.248  0.00  0.00    +0.000 C 
ATOM     17  C   UNL     1      62.755  67.689  55.617  0.00  0.00    +0.000 C 
ATOM     18  C   UNL     1      62.865  67.665  56.435  0.00  0.00    +0.000 C 
ATOM     19  C   UNL     1      62.782  68.352  56.883  0.00  0.00    +0.000 C 
ATOM     20  C   UNL     1      62.589  69.063  56.514  0.00  0.00    +0.000 C 
ENDROOT
TORSDOF 0
ENDMDL
MODEL 8
REMARK VINA RESULT:    -8.031     24.134     25.157
REMARK INTER + INTRA:          -8.031
REMARK INTER:                  -8.031
REMARK INTRA:                   0.000
REMARK UNBOUND:                 0.000
ROOT
REMARK  Name = propipocaine
REMARK                            x       y       z     vdW  Elec       q    Type
REMARK                         _______ _______ _______ _____ _____    ______ ____
ATOM      1  C   UNL     1      70.942  78.659  48.783  0.00  0.00    +0.000 C 
ATOM      2  C   UNL     1      71.045  78.998  49.528  0.00  0.00    +0.000 C 
ATOM      3  C   UNL     1      70.397  79.311  49.932  0.00  0.00    +0.000 C 
ATOM      4  O   UNL     1      70.502  79.650  50.678  0.00  0.00    +0.000 OA
ATOM      5  C   UNL     1      69.853  79.963  51.083  0.00  0.00    +0.000 A 
ATOM      6  C   UNL     1      69.957  80.301  51.827  0.00  0.00    +0.000 A 
ATOM      7  C   UNL     1      69.310  80.614  52.232  0.00  0.00    +0.000 A 
ATOM      8  C   UNL     1      68.559  80.587  51.892  0.00  0.00    +0.000 A 
ATOM      9  C   UNL     1      68.455  80.248  51.147  0.00  0.00    +0.000 A 
ATOM     10  C   UNL     1      69.102  79.936  50.742  0.00  0.00    +0.000 A 
ATOM     11  C   UNL     1      67.912  80.900  52.297  0.00  0.00    +0.000 C 
ATOM     12  O   UNL     1      68.015  81.239  53.042  0.00  0.00    +0.000 OA
ATOM     13  C   UNL     1      67.160  80.873  51.956  0.00  0.00    +0.000 C 
ATOM     14  C   UNL     1      66.513  81.185  52.361  0.00  0.00    +0.000 C 
ATOM     15  N   UNL     1      66.617  81.524  53.106  0.00  0.00    +0.000 NA
ATOM     16  C   UNL     1      67.368  81.551  53.446  0.00  0.00    +0.000 C 
ATOM     17  C   UNL     1      67.471  81.890  54.191  0.00  0.00    +0.000 C 
ATOM     18  C   UNL     1      66.823  82.203  54.596  0.00  0.00    +0.000 C 
ATOM     19  C   UNL     1      66.073  82.176  54.256  0.00  0.00    +0.000 C 
ATOM     20  C   UNL     1      65.969  81.837  53.512  0.00  0.00    +0.000 C 
ENDROOT
TORSDOF 0
ENDMDL
MODEL 9
REMARK VINA RESULT:    -7.838     13.647     14.464
REMARK INTER + INTRA:          -7.838
REMARK INTER:                  -7.838
REMARK INTRA:                   0.000
REMARK UNBOUND:                 0.000
ROOT
REMARK  Name = propipocaine
REMARK                            x       y       z     vdW  Elec       q    Type
REMARK                         _______ _______ _______ _____ _____    ______ ____
ATOM      1  C   UNL     1      62.837  62.602  54.095  0.00  0.00    +0.000 C 
ATOM      2  C   UNL     1      62.269  63.128  53.811  0.00  0.00    +0.000 C 
ATOM      3  C   UNL     1      62.310  63.928  54.010  0.00  0.00    +0.000 C 
ATOM      4  O   UNL     1      61.740  64.453  53.725  0.00  0.00    +0.000 OA
ATOM      5  C   UNL     1      61.781  65.253  53.924  0.00  0.00    +0.000 A 
ATOM      6  C   UNL     1      61.213  65.778  53.640  0.00  0.00    +0.000 A 
ATOM      7  C   UNL     1      61.254  66.578  53.838  0.00  0.00    +0.000 A 
ATOM      8  C   UNL     1      61.863  66.853  54.321  0.00  0.00    +0.000 A 
ATOM      9  C   UNL     1      62.433  66.327  54.606  0.00  0.00    +0.000 A 
ATOM     10  C   UNL     1      62.392  65.527  54.407  0.00  0.00    +0.000 A 
ATOM     11  C   UNL     1      61.904  67.651  54.520  0.00  0.00    +0.000 C 
ATOM     12  O   UNL     1      61.336  68.177  54.236  0.00  0.00    +0.000 OA
ATOM     13  C   UNL     1      62.515  67.926  55.003  0.00  0.00    +0.000 C 
ATOM     14  C   UNL     1      62.556  68.726  55.202  0.00  0.00    +0.000 C 
ATOM     15  N   UNL     1      61.986  69.251  54.917  0.00  0.00    +0.000 NA
ATOM     16  C   UNL     1      61.377  68.977  54.434  0.00  0.00    +0.000 C 
ATOM     17  C   UNL     1      60.808  69.501  54.150  0.00  0.00    +0.000 C 
ATOM     18  C   UNL     1      60.849  70.302  54.349  0.00  0.00    +0.000 C 
ATOM     19  C   UNL     1      61.459  70.576  54.832  0.00  0.00    +0.000 C 
ATOM     20  C   UNL     1      62.027  70.051  55.116  0.00  0.00    +0.000 C 
ENDROOT
TORSDOF 0
ENDMDL
