MODEL 1
REMARK VINA RESULT:    -6.394      0.000      0.000
REMARK INTER + INTRA:          -6.394
REMARK INTER:                  -6.394
REMARK INTRA:                   0.000
REMARK UNBOUND:                 0.000
ROOT
REMARK  Name = propylthiouracil
REMARK                            x       y       z     vdW  Elec       q    Type
REMARK                         _______ _______ _______ _____ _____    ______ ____
ATOM      1  C   UNL     1      62.387  61.677  63.997  0.00  0.00    +0.000 C 
ATOM      2  C   UNL     1      62.028  61.928  64.696  0.00  0.00    +0.000 C 
ATOM      3  C   UNL     1      61.227  61.776  64.827  0.00  0.00    +0.000 C 
ATOM      4  C   UNL     1      60.868  62.027  65.524  0.00  0.00    +0.000 A 
ATOM      5  C   UNL     1      60.068  61.876  65.655  0.00  0.00    +0.000 A 
ATOM      6  C   UNL     1      59.709  62.127  66.354  0.00  0.00    +0.000 A 
ATOM      7  O   UNL     1      58.909  61.975  66.484  0.00  0.00    +0.000 OA
ATOM      8  N   UNL     1      60.150  62.531  66.922  0.00  0.00    +0.000 NA
ATOM      9  C   UNL     1      60.950  62.683  66.792  0.00  0.00    +0.000 A 
ATOM     10  S   UNL     1      61.392  63.087  67.360  0.00  0.00    +0.000 S 
ATOM     11  N   UNL     1      61.309  62.432  66.093  0.00  0.00    +0.000 NA
ENDROOT
TORSDOF 0
ENDMDL
MODEL 2
REMARK VINA RESULT:    -6.111      1.752      2.733
REMARK INTER + INTRA:          -6.111
REMARK INTER:                  -6.111
REMARK INTRA:                   0.000
REMARK UNBOUND:                 0.000
ROOT
REMARK  Name = propylthiouracil
REMARK                            x       y       z     vdW  Elec       q    Type
REMARK                         _______ _______ _______ _____ _____    ______ ____
ATOM      1  C   UNL     1      59.056  62.130  66.701  0.00  0.00    +0.000 C 
ATOM      2  C   UNL     1      59.733  62.091  66.231  0.00  0.00    +0.000 C 
ATOM      3  C   UNL     1      59.723  61.656  65.529  0.00  0.00    +0.000 C 
ATOM      4  C   UNL     1      60.399  61.618  65.059  0.00  0.00    +0.000 A 
ATOM      5  C   UNL     1      60.390  61.183  64.358  0.00  0.00    +0.000 A 
ATOM      6  C   UNL     1      61.067  61.145  63.887  0.00  0.00    +0.000 A 
ATOM      7  O   UNL     1      61.057  60.710  63.187  0.00  0.00    +0.000 OA
ATOM      8  N   UNL     1      61.752  61.541  64.118  0.00  0.00    +0.000 NA
ATOM      9  C   UNL     1      61.762  61.975  64.819  0.00  0.00    +0.000 A 
ATOM     10  S   UNL     1      62.448  62.372  65.050  0.00  0.00    +0.000 S 
ATOM     11  N   UNL     1      61.086  62.014  65.289  0.00  0.00    +0.000 NA
ENDROOT
TORSDOF 0
ENDMDL
MODEL 3
REMARK VINA RESULT:    -5.934      1.624      1.960
REMARK INTER + INTRA:          -5.934
REMARK INTER:                  -5.934
REMARK INTRA:                   0.000
REMARK UNBOUND:                 0.000
ROOT
REMARK  Name = propylthiouracil
REMARK                            x       y       z     vdW  Elec       q    Type
REMARK                         _______ _______ _______ _____ _____    ______ ____
ATOM      1  C   UNL     1      62.017  62.328  65.253  0.00  0.00    +0.000 C 
ATOM      2  C   UNL     1      61.867  62.566  66.029  0.00  0.00    +0.000 C 
ATOM      3  C   UNL     1      61.391  62.102  66.519  0.00  0.00    +0.000 C 
ATOM      4  C   UNL     1      61.242  62.339  67.293  0.00  0.00    +0.000 A 
ATOM      5  C   UNL     1      60.766  61.876  67.783  0.00  0.00    +0.000 A 
ATOM      6  C   UNL     1      60.617  62.114  68.559  0.00  0.00    +0.000 A 
ATOM      7  O   UNL     1      60.142  61.650  69.047  0.00  0.00    +0.000 OA
ATOM      8  N   UNL     1      60.943  62.815  68.845  0.00  0.00    +0.000 NA
ATOM      9  C   UNL     1      61.419  63.279  68.356  0.00  0.00    +0.000 A 
ATOM     10  S   UNL     1      61.745  63.981  68.642  0.00  0.00    +0.000 S 
ATOM     11  N   UNL     1      61.568  63.041  67.580  0.00  0.00    +0.000 NA
ENDROOT
TORSDOF 0
ENDMDL
MODEL 4
REMARK VINA RESULT:    -5.816      3.863      5.095
REMARK INTER + INTRA:          -5.816
REMARK INTER:                  -5.816
REMARK INTRA:                   0.000
REMARK UNBOUND:                 0.000
ROOT
REMARK  Name = propylthiouracil
REMARK                            x       y       z     vdW  Elec       q    Type
REMARK                         _______ _______ _______ _____ _____    ______ ____
ATOM      1  C   UNL     1      61.581  62.736  72.845  0.00  0.00    +0.000 C 
ATOM      2  C   UNL     1      61.522  62.873  72.034  0.00  0.00    +0.000 C 
ATOM      3  C   UNL     1      61.109  62.343  71.555  0.00  0.00    +0.000 C 
ATOM      4  C   UNL     1      61.050  62.480  70.744  0.00  0.00    +0.000 A 
ATOM      5  C   UNL     1      60.638  61.950  70.265  0.00  0.00    +0.000 A 
ATOM      6  C   UNL     1      60.579  62.087  69.453  0.00  0.00    +0.000 A 
ATOM      7  O   UNL     1      60.166  61.557  68.975  0.00  0.00    +0.000 OA
ATOM      8  N   UNL     1      60.932  62.753  69.121  0.00  0.00    +0.000 NA
ATOM      9  C   UNL     1      61.345  63.284  69.600  0.00  0.00    +0.000 A 
ATOM     10  S   UNL     1      61.699  63.951  69.268  0.00  0.00    +0.000 S 
ATOM     11  N   UNL     1      61.404  63.147  70.411  0.00  0.00    +0.000 NA
ENDROOT
TORSDOF 0
ENDMDL
MODEL 5
REMARK VINA RESULT:    -5.689      4.913      5.800
REMARK INTER + INTRA:          -5.689
REMARK INTER:                  -5.689
REMARK INTRA:                   0.000
REMARK UNBOUND:                 0.000
ROOT
REMARK  Name = propylthiouracil
REMARK                            x       y       z     vdW  Elec       q    Type
REMARK                         _______ _______ _______ _____ _____    ______ ____
ATOM      1  C   UNL     1      60.544  61.882  69.111  0.00  0.00    +0.000 C 
ATOM      2  C   UNL     1      60.527  62.303  69.820  0.00  0.00    +0.000 C 
ATOM      3  C   UNL     1      60.996  62.061  70.456  0.00  0.00    +0.000 C 
ATOM      4  C   UNL     1      60.979  62.482  71.164  0.00  0.00    +0.000 A 
ATOM      5  C   UNL     1      61.447  62.240  71.799  0.00  0.00    +0.000 A 
ATOM      6  C   UNL     1      61.430  62.661  72.508  0.00  0.00    +0.000 A 
ATOM      7  O   UNL     1      61.898  62.420  73.142  0.00  0.00    +0.000 OA
ATOM      8  N   UNL     1      60.945  63.324  72.583  0.00  0.00    +0.000 NA
ATOM      9  C   UNL     1      60.476  63.566  71.948  0.00  0.00    +0.000 A 
ATOM     10  S   UNL     1      59.990  64.229  72.022  0.00  0.00    +0.000 S 
ATOM     11  N   UNL     1      60.493  63.145  71.239  0.00  0.00    +0.000 NA
ENDROOT
TORSDOF 0
ENDMDL
MODEL 6
REMARK VINA RESULT:    -5.648      6.469      7.231
REMARK INTER + INTRA:          -5.648
REMARK INTER:                  -5.648
REMARK INTRA:                   0.000
REMARK UNBOUND:                 0.000
ROOT
REMARK  Name = propylthiouracil
REMARK                            x       y       z     vdW  Elec       q    Type
REMARK                         _______ _______ _______ _____ _____    ______ ____
ATOM      1  C   UNL     1      66.237  67.765  69.900  0.00  0.00    +0.000 C 
ATOM      2  C   UNL     1      65.621  67.325  70.230  0.00  0.00    +0.000 C 
ATOM      3  C   UNL     1      65.452  66.571  69.940  0.00  0.00    +0.000 C 
ATOM      4  C   UNL     1      64.837  66.132  70.270  0.00  0.00    +0.000 A 
ATOM      5  C   UNL     1      64.667  65.378  69.981  0.00  0.00    +0.000 A 
ATOM      6  C   UNL     1      64.052  64.939  70.310  0.00  0.00    +0.000 A 
ATOM      7  O   UNL     1      63.882  64.185  70.021  0.00  0.00    +0.000 OA
ATOM      8  N   UNL     1      63.606  65.252  70.929  0.00  0.00    +0.000 NA
ATOM      9  C   UNL     1      63.776  66.006  71.219  0.00  0.00    +0.000 A 
ATOM     10  S   UNL     1      63.330  66.321  71.838  0.00  0.00    +0.000 S 
ATOM     11  N   UNL     1      64.391  66.446  70.889  0.00  0.00    +0.000 NA
ENDROOT
TORSDOF 0
ENDMDL
MODEL 7
REMARK VINA RESULT:    -5.612      8.550      9.377
REMARK INTER + INTRA:          -5.612
REMARK INTER:                  -5.612
REMARK INTRA:                   0.000
REMARK UNBOUND:                 0.000
ROOT
REMARK  Name = propylthiouracil
REMARK                            x       y       z     vdW  Elec       q    Type
REMARK                         _______ _______ _______ _____ _____    ______ ____
ATOM      1  C   UNL     1      67.905  66.385  73.215  0.00  0.00    +0.000 C 
ATOM      2  C   UNL     1      67.237  66.482  72.741  0.00  0.00    +0.000 C 
ATOM      3  C   UNL     1      67.298  66.876  72.018  0.00  0.00    +0.000 C 
ATOM      4  C   UNL     1      66.631  66.973  71.544  0.00  0.00    +0.000 A 
ATOM      5  C   UNL     1      66.692  67.367  70.822  0.00  0.00    +0.000 A 
ATOM      6  C   UNL     1      66.024  67.464  70.347  0.00  0.00    +0.000 A 
ATOM      7  O   UNL     1      66.085  67.858  69.625  0.00  0.00    +0.000 OA
ATOM      8  N   UNL     1      65.296  67.168  70.595  0.00  0.00    +0.000 NA
ATOM      9  C   UNL     1      65.234  66.774  71.317  0.00  0.00    +0.000 A 
ATOM     10  S   UNL     1      64.505  66.477  71.566  0.00  0.00    +0.000 S 
ATOM     11  N   UNL     1      65.902  66.677  71.792  0.00  0.00    +0.000 NA
ENDROOT
TORSDOF 0
ENDMDL
MODEL 8
REMARK VINA RESULT:    -5.569      7.496      8.318
REMARK INTER + INTRA:          -5.569
REMARK INTER:                  -5.569
REMARK INTRA:                   0.000
REMARK UNBOUND:                 0.000
ROOT
REMARK  Name = propylthiouracil
REMARK                            x       y       z     vdW  Elec       q    Type
REMARK                         _______ _______ _______ _____ _____    ______ ____
ATOM      1  C   UNL     1      63.472  65.094  70.597  0.00  0.00    +0.000 C 
ATOM      2  C   UNL     1      64.141  65.529  70.806  0.00  0.00    +0.000 C 
ATOM      3  C   UNL     1      64.473  66.061  70.269  0.00  0.00    +0.000 C 
ATOM      4  C   UNL     1      65.141  66.495  70.479  0.00  0.00    +0.000 A 
ATOM      5  C   UNL     1      65.474  67.026  69.942  0.00  0.00    +0.000 A 
ATOM      6  C   UNL     1      66.142  67.462  70.152  0.00  0.00    +0.000 A 
ATOM      7  O   UNL     1      66.474  67.992  69.615  0.00  0.00    +0.000 OA
ATOM      8  N   UNL     1      66.479  67.366  70.899  0.00  0.00    +0.000 NA
ATOM      9  C   UNL     1      66.147  66.835  71.436  0.00  0.00    +0.000 A 
ATOM     10  S   UNL     1      66.483  66.739  72.184  0.00  0.00    +0.000 S 
ATOM     11  N   UNL     1      65.478  66.400  71.226  0.00  0.00    +0.000 NA
ENDROOT
TORSDOF 0
ENDMDL
MODEL 9
REMARK VINA RESULT:    -5.314      5.793      6.341
REMARK INTER + INTRA:          -5.314
REMARK INTER:                  -5.314
REMARK INTRA:                   0.000
REMARK UNBOUND:                 0.000
ROOT
REMARK  Name = propylthiouracil
REMARK                            x       y       z     vdW  Elec       q    Type
REMARK                         _______ _______ _______ _____ _____    ______ ____
ATOM      1  C   UNL     1      61.082  61.621  70.980  0.00  0.00    +0.000 C 
ATOM      2  C   UNL     1      61.039  62.369  71.326  0.00  0.00    +0.000 C 
ATOM      3  C   UNL     1      60.318  62.770  71.353  0.00  0.00    +0.000 C 
ATOM      4  C   UNL     1      60.274  63.517  71.699  0.00  0.00    +0.000 A 
ATOM      5  C   UNL     1      59.554  63.918  71.726  0.00  0.00    +0.000 A 
ATOM      6  C   UNL     1      59.510  64.665  72.072  0.00  0.00    +0.000 A 
ATOM      7  O   UNL     1      58.790  65.066  72.099  0.00  0.00    +0.000 OA
ATOM      8  N   UNL     1      60.187  65.011  72.392  0.00  0.00    +0.000 NA
ATOM      9  C   UNL     1      60.908  64.611  72.366  0.00  0.00    +0.000 A 
ATOM     10  S   UNL     1      61.585  64.957  72.686  0.00  0.00    +0.000 S 
ATOM     11  N   UNL     1      60.951  63.863  72.019  0.00  0.00    +0.000 NA
ENDROOT
TORSDOF 0
ENDMDL
