MODEL 1
REMARK VINA RESULT:    -3.424      0.000      0.000
REMARK INTER + INTRA:          -3.424
REMARK INTER:                  -3.424
REMARK INTRA:                   0.000
REMARK UNBOUND:                 0.000
ROOT
REMARK  Name = propiolactone
REMARK                            x       y       z     vdW  Elec       q    Type
REMARK                         _______ _______ _______ _____ _____    ______ ____
ATOM      1  O   UNL     1      65.792  76.641  60.438  0.00  0.00    +0.000 OA
ATOM      2  C   UNL     1      66.061  77.249  59.951  0.00  0.00    +0.000 C 
ATOM      3  C   UNL     1      66.439  77.973  60.076  0.00  0.00    +0.000 C 
ATOM      4  C   UNL     1      66.443  78.111  59.262  0.00  0.00    +0.000 C 
ATOM      5  O   UNL     1      66.065  77.388  59.138  0.00  0.00    +0.000 OA
ENDROOT
TORSDOF 0
ENDMDL
MODEL 2
REMARK VINA RESULT:    -3.324     16.417     16.657
REMARK INTER + INTRA:          -3.324
REMARK INTER:                  -3.324
REMARK INTRA:                   0.000
REMARK UNBOUND:                 0.000
ROOT
REMARK  Name = propiolactone
REMARK                            x       y       z     vdW  Elec       q    Type
REMARK                         _______ _______ _______ _____ _____    ______ ____
ATOM      1  O   UNL     1      62.458  61.625  63.548  0.00  0.00    +0.000 OA
ATOM      2  C   UNL     1      62.341  61.934  64.305  0.00  0.00    +0.000 C 
ATOM      3  C   UNL     1      62.409  61.638  65.073  0.00  0.00    +0.000 C 
ATOM      4  C   UNL     1      62.176  62.370  65.374  0.00  0.00    +0.000 C 
ATOM      5  O   UNL     1      62.108  62.665  64.608  0.00  0.00    +0.000 OA
ENDROOT
TORSDOF 0
ENDMDL
MODEL 3
REMARK VINA RESULT:    -2.846     11.101     11.669
REMARK INTER + INTRA:          -2.846
REMARK INTER:                  -2.846
REMARK INTRA:                   0.000
REMARK UNBOUND:                 0.000
ROOT
REMARK  Name = propiolactone
REMARK                            x       y       z     vdW  Elec       q    Type
REMARK                         _______ _______ _______ _____ _____    ______ ____
ATOM      1  O   UNL     1      69.949  78.592  49.910  0.00  0.00    +0.000 OA
ATOM      2  C   UNL     1      70.540  78.562  49.336  0.00  0.00    +0.000 C 
ATOM      3  C   UNL     1      70.938  79.122  48.877  0.00  0.00    +0.000 C 
ATOM      4  C   UNL     1      71.376  78.520  48.523  0.00  0.00    +0.000 C 
ATOM      5  O   UNL     1      70.979  77.961  48.981  0.00  0.00    +0.000 OA
ENDROOT
TORSDOF 0
ENDMDL
MODEL 4
REMARK VINA RESULT:    -2.760     14.123     14.579
REMARK INTER + INTRA:          -2.760
REMARK INTER:                  -2.760
REMARK INTRA:                   0.000
REMARK UNBOUND:                 0.000
ROOT
REMARK  Name = propiolactone
REMARK                            x       y       z     vdW  Elec       q    Type
REMARK                         _______ _______ _______ _____ _____    ______ ____
ATOM      1  O   UNL     1      66.457  67.925  69.672  0.00  0.00    +0.000 OA
ATOM      2  C   UNL     1      65.881  67.391  69.925  0.00  0.00    +0.000 C 
ATOM      3  C   UNL     1      65.572  67.169  70.658  0.00  0.00    +0.000 C 
ATOM      4  C   UNL     1      65.066  66.636  70.283  0.00  0.00    +0.000 C 
ATOM      5  O   UNL     1      65.375  66.858  69.551  0.00  0.00    +0.000 OA
ENDROOT
TORSDOF 0
ENDMDL
MODEL 5
REMARK VINA RESULT:    -2.660     17.452     17.771
REMARK INTER + INTRA:          -2.660
REMARK INTER:                  -2.660
REMARK INTRA:                   0.000
REMARK UNBOUND:                 0.000
ROOT
REMARK  Name = propiolactone
REMARK                            x       y       z     vdW  Elec       q    Type
REMARK                         _______ _______ _______ _____ _____    ______ ____
ATOM      1  O   UNL     1      61.016  62.280  66.014  0.00  0.00    +0.000 OA
ATOM      2  C   UNL     1      60.231  62.254  66.266  0.00  0.00    +0.000 C 
ATOM      3  C   UNL     1      59.532  61.929  65.969  0.00  0.00    +0.000 C 
ATOM      4  C   UNL     1      59.120  62.218  66.623  0.00  0.00    +0.000 C 
ATOM      5  O   UNL     1      59.818  62.542  66.920  0.00  0.00    +0.000 OA
ENDROOT
TORSDOF 0
ENDMDL
MODEL 6
REMARK VINA RESULT:    -2.566     14.885     14.976
REMARK INTER + INTRA:          -2.566
REMARK INTER:                  -2.566
REMARK INTRA:                   0.000
REMARK UNBOUND:                 0.000
ROOT
REMARK  Name = propiolactone
REMARK                            x       y       z     vdW  Elec       q    Type
REMARK                         _______ _______ _______ _____ _____    ______ ____
ATOM      1  O   UNL     1      75.875  67.273  57.482  0.00  0.00    +0.000 OA
ATOM      2  C   UNL     1      76.519  67.334  56.970  0.00  0.00    +0.000 C 
ATOM      3  C   UNL     1      76.616  67.533  56.174  0.00  0.00    +0.000 C 
ATOM      4  C   UNL     1      77.431  67.421  56.246  0.00  0.00    +0.000 C 
ATOM      5  O   UNL     1      77.334  67.222  57.040  0.00  0.00    +0.000 OA
ENDROOT
TORSDOF 0
ENDMDL
MODEL 7
REMARK VINA RESULT:    -2.445     17.492     18.129
REMARK INTER + INTRA:          -2.445
REMARK INTER:                  -2.445
REMARK INTRA:                   0.000
REMARK UNBOUND:                 0.000
ROOT
REMARK  Name = propiolactone
REMARK                            x       y       z     vdW  Elec       q    Type
REMARK                         _______ _______ _______ _____ _____    ______ ____
ATOM      1  O   UNL     1      60.869  63.365  67.634  0.00  0.00    +0.000 OA
ATOM      2  C   UNL     1      60.700  62.819  68.229  0.00  0.00    +0.000 C 
ATOM      3  C   UNL     1      60.625  61.997  68.263  0.00  0.00    +0.000 C 
ATOM      4  C   UNL     1      60.460  62.046  69.070  0.00  0.00    +0.000 C 
ATOM      5  O   UNL     1      60.534  62.867  69.036  0.00  0.00    +0.000 OA
ENDROOT
TORSDOF 0
ENDMDL
MODEL 8
REMARK VINA RESULT:    -2.434     16.365     16.713
REMARK INTER + INTRA:          -2.434
REMARK INTER:                  -2.434
REMARK INTRA:                   0.000
REMARK UNBOUND:                 0.000
ROOT
REMARK  Name = propiolactone
REMARK                            x       y       z     vdW  Elec       q    Type
REMARK                         _______ _______ _______ _____ _____    ______ ____
ATOM      1  O   UNL     1      65.135  62.682  54.055  0.00  0.00    +0.000 OA
ATOM      2  C   UNL     1      64.515  62.138  54.054  0.00  0.00    +0.000 C 
ATOM      3  C   UNL     1      63.692  62.189  54.005  0.00  0.00    +0.000 C 
ATOM      4  C   UNL     1      63.639  61.367  54.051  0.00  0.00    +0.000 C 
ATOM      5  O   UNL     1      64.460  61.316  54.100  0.00  0.00    +0.000 OA
ENDROOT
TORSDOF 0
ENDMDL
MODEL 9
REMARK VINA RESULT:    -2.315     16.449     16.571
REMARK INTER + INTRA:          -2.315
REMARK INTER:                  -2.315
REMARK INTRA:                   0.000
REMARK UNBOUND:                 0.000
ROOT
REMARK  Name = propiolactone
REMARK                            x       y       z     vdW  Elec       q    Type
REMARK                         _______ _______ _______ _____ _____    ______ ____
ATOM      1  O   UNL     1      63.152  64.196  69.470  0.00  0.00    +0.000 OA
ATOM      2  C   UNL     1      63.780  64.540  69.879  0.00  0.00    +0.000 C 
ATOM      3  C   UNL     1      63.853  64.987  70.570  0.00  0.00    +0.000 C 
ATOM      4  C   UNL     1      64.669  65.028  70.458  0.00  0.00    +0.000 C 
ATOM      5  O   UNL     1      64.597  64.582  69.768  0.00  0.00    +0.000 OA
ENDROOT
TORSDOF 0
ENDMDL
