MODEL 1
REMARK VINA RESULT:   -11.204      0.000      0.000
REMARK INTER + INTRA:         -11.204
REMARK INTER:                 -11.204
REMARK INTRA:                   0.000
REMARK UNBOUND:                 0.000
ROOT
REMARK  Name = protirelin
REMARK                            x       y       z     vdW  Elec       q    Type
REMARK                         _______ _______ _______ _____ _____    ______ ____
ATOM      1  N   UNL     1      62.012  63.614  71.975  0.00  0.00    +0.000 NA
ATOM      2  C   UNL     1      61.449  63.019  72.075  0.00  0.00    +0.000 C 
ATOM      3  O   UNL     1      61.256  62.757  72.833  0.00  0.00    +0.000 OA
ATOM      4  C   UNL     1      61.078  62.687  71.416  0.00  0.00    +0.000 C 
ATOM      5  C   UNL     1      60.507  62.092  71.431  0.00  0.00    +0.000 C 
ATOM      6  C   UNL     1      60.290  61.929  70.651  0.00  0.00    +0.000 C 
ATOM      7  C   UNL     1      60.727  62.424  70.157  0.00  0.00    +0.000 C 
ATOM      8  N   UNL     1      61.214  62.892  70.629  0.00  0.00    +0.000 N 
ATOM      9  C   UNL     1      61.744  63.465  70.361  0.00  0.00    +0.000 C 
ATOM     10  O   UNL     1      62.197  63.892  70.902  0.00  0.00    +0.000 OA
ATOM     11  C   UNL     1      61.820  63.610  69.553  0.00  0.00    +0.000 C 
ATOM     12  C   UNL     1      62.350  64.183  69.285  0.00  0.00    +0.000 C 
ATOM     13  C   UNL     1      62.804  64.611  69.826  0.00  0.00    +0.000 A 
ATOM     14  C   UNL     1      63.353  65.197  69.641  0.00  0.00    +0.000 A 
ATOM     15  N   UNL     1      63.676  65.476  70.348  0.00  0.00    +0.000 NA
ATOM     16  C   UNL     1      63.326  65.061  70.970  0.00  0.00    +0.000 A 
ATOM     17  N   UNL     1      62.786  64.526  70.647  0.00  0.00    +0.000 NA
ATOM     18  N   UNL     1      61.368  63.183  69.012  0.00  0.00    +0.000 NA
ATOM     19  C   UNL     1      61.444  63.328  68.204  0.00  0.00    +0.000 C 
ATOM     20  O   UNL     1      61.974  63.901  67.937  0.00  0.00    +0.000 OA
ATOM     21  C   UNL     1      60.991  62.901  67.663  0.00  0.00    +0.000 C 
ATOM     22  C   UNL     1      60.441  62.314  67.848  0.00  0.00    +0.000 C 
ATOM     23  C   UNL     1      60.119  62.035  67.141  0.00  0.00    +0.000 C 
ATOM     24  C   UNL     1      60.469  62.450  66.520  0.00  0.00    +0.000 C 
ATOM     25  O   UNL     1      60.308  62.347  65.718  0.00  0.00    +0.000 OA
ATOM     26  N   UNL     1      61.008  62.984  66.842  0.00  0.00    +0.000 NA
ENDROOT
TORSDOF 0
ENDMDL
MODEL 2
REMARK VINA RESULT:   -11.148      2.401      3.873
REMARK INTER + INTRA:         -11.148
REMARK INTER:                 -11.148
REMARK INTRA:                   0.000
REMARK UNBOUND:                 0.000
ROOT
REMARK  Name = protirelin
REMARK                            x       y       z     vdW  Elec       q    Type
REMARK                         _______ _______ _______ _____ _____    ______ ____
ATOM      1  N   UNL     1      61.227  61.749  70.523  0.00  0.00    +0.000 NA
ATOM      2  C   UNL     1      61.363  61.866  71.329  0.00  0.00    +0.000 C 
ATOM      3  O   UNL     1      61.698  61.265  71.782  0.00  0.00    +0.000 OA
ATOM      4  C   UNL     1      61.162  62.586  71.680  0.00  0.00    +0.000 C 
ATOM      5  C   UNL     1      61.265  62.781  72.475  0.00  0.00    +0.000 C 
ATOM      6  C   UNL     1      60.990  63.552  72.585  0.00  0.00    +0.000 C 
ATOM      7  C   UNL     1      60.719  63.831  71.858  0.00  0.00    +0.000 C 
ATOM      8  N   UNL     1      60.825  63.234  71.299  0.00  0.00    +0.000 N 
ATOM      9  C   UNL     1      60.628  63.278  70.499  0.00  0.00    +0.000 C 
ATOM     10  O   UNL     1      60.768  62.634  70.004  0.00  0.00    +0.000 OA
ATOM     11  C   UNL     1      60.292  63.968  70.194  0.00  0.00    +0.000 C 
ATOM     12  C   UNL     1      60.096  64.012  69.394  0.00  0.00    +0.000 C 
ATOM     13  C   UNL     1      60.235  63.366  68.899  0.00  0.00    +0.000 A 
ATOM     14  C   UNL     1      60.068  63.330  68.092  0.00  0.00    +0.000 A 
ATOM     15  N   UNL     1      60.296  62.586  67.818  0.00  0.00    +0.000 NA
ATOM     16  C   UNL     1      60.603  62.162  68.456  0.00  0.00    +0.000 A 
ATOM     17  N   UNL     1      60.566  62.645  69.124  0.00  0.00    +0.000 NA
ATOM     18  N   UNL     1      60.153  64.613  70.689  0.00  0.00    +0.000 NA
ATOM     19  C   UNL     1      59.818  65.301  70.384  0.00  0.00    +0.000 C 
ATOM     20  O   UNL     1      59.621  65.345  69.584  0.00  0.00    +0.000 OA
ATOM     21  C   UNL     1      59.678  65.947  70.879  0.00  0.00    +0.000 C 
ATOM     22  C   UNL     1      59.845  65.983  71.687  0.00  0.00    +0.000 C 
ATOM     23  C   UNL     1      59.618  66.728  71.960  0.00  0.00    +0.000 C 
ATOM     24  C   UNL     1      59.310  67.151  71.322  0.00  0.00    +0.000 C 
ATOM     25  O   UNL     1      59.017  67.922  71.348  0.00  0.00    +0.000 OA
ATOM     26  N   UNL     1      59.348  66.669  70.655  0.00  0.00    +0.000 NA
ENDROOT
TORSDOF 0
ENDMDL
MODEL 3
REMARK VINA RESULT:   -11.012      2.149      4.539
REMARK INTER + INTRA:         -11.012
REMARK INTER:                 -11.012
REMARK INTRA:                   0.000
REMARK UNBOUND:                 0.000
ROOT
REMARK  Name = protirelin
REMARK                            x       y       z     vdW  Elec       q    Type
REMARK                         _______ _______ _______ _____ _____    ______ ____
ATOM      1  N   UNL     1      61.051  64.536  71.797  0.00  0.00    +0.000 NA
ATOM      2  C   UNL     1      61.201  65.019  72.449  0.00  0.00    +0.000 C 
ATOM      3  O   UNL     1      60.693  65.003  73.099  0.00  0.00    +0.000 OA
ATOM      4  C   UNL     1      61.858  65.519  72.450  0.00  0.00    +0.000 C 
ATOM      5  C   UNL     1      62.075  66.030  73.060  0.00  0.00    +0.000 C 
ATOM      6  C   UNL     1      62.765  66.422  72.829  0.00  0.00    +0.000 C 
ATOM      7  C   UNL     1      62.971  66.152  72.077  0.00  0.00    +0.000 C 
ATOM      8  N   UNL     1      62.411  65.594  71.843  0.00  0.00    +0.000 N 
ATOM      9  C   UNL     1      62.405  65.183  71.128  0.00  0.00    +0.000 C 
ATOM     10  O   UNL     1      61.806  64.639  70.970  0.00  0.00    +0.000 OA
ATOM     11  C   UNL     1      62.999  65.317  70.571  0.00  0.00    +0.000 C 
ATOM     12  C   UNL     1      62.993  64.906  69.855  0.00  0.00    +0.000 C 
ATOM     13  C   UNL     1      62.393  64.361  69.697  0.00  0.00    +0.000 A 
ATOM     14  C   UNL     1      62.315  63.912  69.010  0.00  0.00    +0.000 A 
ATOM     15  N   UNL     1      61.640  63.444  69.087  0.00  0.00    +0.000 NA
ATOM     16  C   UNL     1      61.301  63.604  69.822  0.00  0.00    +0.000 A 
ATOM     17  N   UNL     1      61.766  64.171  70.199  0.00  0.00    +0.000 NA
ATOM     18  N   UNL     1      63.598  65.861  70.728  0.00  0.00    +0.000 NA
ATOM     19  C   UNL     1      64.191  65.995  70.172  0.00  0.00    +0.000 C 
ATOM     20  O   UNL     1      64.185  65.584  69.456  0.00  0.00    +0.000 OA
ATOM     21  C   UNL     1      64.790  66.539  70.329  0.00  0.00    +0.000 C 
ATOM     22  C   UNL     1      64.868  66.989  71.017  0.00  0.00    +0.000 C 
ATOM     23  C   UNL     1      65.543  67.457  70.940  0.00  0.00    +0.000 C 
ATOM     24  C   UNL     1      65.882  67.297  70.205  0.00  0.00    +0.000 C 
ATOM     25  O   UNL     1      66.566  67.644  69.901  0.00  0.00    +0.000 OA
ATOM     26  N   UNL     1      65.417  66.730  69.828  0.00  0.00    +0.000 NA
ENDROOT
TORSDOF 0
ENDMDL
MODEL 4
REMARK VINA RESULT:   -10.945      2.185      2.280
REMARK INTER + INTRA:         -10.945
REMARK INTER:                 -10.945
REMARK INTRA:                   0.000
REMARK UNBOUND:                 0.000
ROOT
REMARK  Name = protirelin
REMARK                            x       y       z     vdW  Elec       q    Type
REMARK                         _______ _______ _______ _____ _____    ______ ____
ATOM      1  N   UNL     1      60.033  65.240  72.148  0.00  0.00    +0.000 NA
ATOM      2  C   UNL     1      60.258  64.491  72.412  0.00  0.00    +0.000 C 
ATOM      3  O   UNL     1      60.328  64.342  73.220  0.00  0.00    +0.000 OA
ATOM      4  C   UNL     1      60.412  63.890  71.867  0.00  0.00    +0.000 C 
ATOM      5  C   UNL     1      60.641  63.119  72.049  0.00  0.00    +0.000 C 
ATOM      6  C   UNL     1      60.735  62.707  71.339  0.00  0.00    +0.000 C 
ATOM      7  C   UNL     1      60.564  63.226  70.720  0.00  0.00    +0.000 C 
ATOM      8  N   UNL     1      60.365  63.957  71.046  0.00  0.00    +0.000 N 
ATOM      9  C   UNL     1      60.156  64.635  70.626  0.00  0.00    +0.000 C 
ATOM     10  O   UNL     1      59.970  65.329  71.030  0.00  0.00    +0.000 OA
ATOM     11  C   UNL     1      60.133  64.618  69.801  0.00  0.00    +0.000 C 
ATOM     12  C   UNL     1      59.923  65.296  69.381  0.00  0.00    +0.000 C 
ATOM     13  C   UNL     1      59.736  65.991  69.785  0.00  0.00    +0.000 A 
ATOM     14  C   UNL     1      59.518  66.708  69.440  0.00  0.00    +0.000 A 
ATOM     15  N   UNL     1      59.383  67.251  70.047  0.00  0.00    +0.000 NA
ATOM     16  C   UNL     1      59.517  66.869  70.766  0.00  0.00    +0.000 A 
ATOM     17  N   UNL     1      59.736  66.090  70.604  0.00  0.00    +0.000 NA
ATOM     18  N   UNL     1      60.319  63.923  69.397  0.00  0.00    +0.000 NA
ATOM     19  C   UNL     1      60.295  63.906  68.574  0.00  0.00    +0.000 C 
ATOM     20  O   UNL     1      60.086  64.584  68.153  0.00  0.00    +0.000 OA
ATOM     21  C   UNL     1      60.482  63.212  68.169  0.00  0.00    +0.000 C 
ATOM     22  C   UNL     1      60.700  62.494  68.514  0.00  0.00    +0.000 C 
ATOM     23  C   UNL     1      60.835  61.952  67.907  0.00  0.00    +0.000 C 
ATOM     24  C   UNL     1      60.701  62.333  67.188  0.00  0.00    +0.000 C 
ATOM     25  O   UNL     1      60.773  61.995  66.439  0.00  0.00    +0.000 OA
ATOM     26  N   UNL     1      60.482  63.112  67.350  0.00  0.00    +0.000 NA
ENDROOT
TORSDOF 0
ENDMDL
MODEL 5
REMARK VINA RESULT:   -10.680      2.320      3.551
REMARK INTER + INTRA:         -10.680
REMARK INTER:                 -10.680
REMARK INTRA:                   0.000
REMARK UNBOUND:                 0.000
ROOT
REMARK  Name = protirelin
REMARK                            x       y       z     vdW  Elec       q    Type
REMARK                         _______ _______ _______ _____ _____    ______ ____
ATOM      1  N   UNL     1      63.012  67.284  72.400  0.00  0.00    +0.000 NA
ATOM      2  C   UNL     1      62.279  67.335  72.776  0.00  0.00    +0.000 C 
ATOM      3  O   UNL     1      62.090  68.002  73.222  0.00  0.00    +0.000 OA
ATOM      4  C   UNL     1      61.736  66.717  72.707  0.00  0.00    +0.000 C 
ATOM      5  C   UNL     1      60.987  66.691  73.051  0.00  0.00    +0.000 C 
ATOM      6  C   UNL     1      60.634  65.975  72.839  0.00  0.00    +0.000 C 
ATOM      7  C   UNL     1      61.167  65.561  72.364  0.00  0.00    +0.000 C 
ATOM      8  N   UNL     1      61.847  66.019  72.282  0.00  0.00    +0.000 N 
ATOM      9  C   UNL     1      62.521  65.815  71.852  0.00  0.00    +0.000 C 
ATOM     10  O   UNL     1      63.162  66.332  71.821  0.00  0.00    +0.000 OA
ATOM     11  C   UNL     1      62.552  65.094  71.453  0.00  0.00    +0.000 C 
ATOM     12  C   UNL     1      63.226  64.890  71.023  0.00  0.00    +0.000 C 
ATOM     13  C   UNL     1      63.868  65.407  70.991  0.00  0.00    +0.000 A 
ATOM     14  C   UNL     1      64.575  65.279  70.586  0.00  0.00    +0.000 A 
ATOM     15  N   UNL     1      65.060  65.936  70.704  0.00  0.00    +0.000 NA
ATOM     16  C   UNL     1      64.652  66.471  71.183  0.00  0.00    +0.000 A 
ATOM     17  N   UNL     1      63.916  66.144  71.361  0.00  0.00    +0.000 NA
ATOM     18  N   UNL     1      61.911  64.577  71.484  0.00  0.00    +0.000 NA
ATOM     19  C   UNL     1      61.943  63.856  71.085  0.00  0.00    +0.000 C 
ATOM     20  O   UNL     1      62.616  63.652  70.655  0.00  0.00    +0.000 OA
ATOM     21  C   UNL     1      61.301  63.338  71.116  0.00  0.00    +0.000 C 
ATOM     22  C   UNL     1      60.594  63.466  71.522  0.00  0.00    +0.000 C 
ATOM     23  C   UNL     1      60.110  62.809  71.403  0.00  0.00    +0.000 C 
ATOM     24  C   UNL     1      60.516  62.275  70.924  0.00  0.00    +0.000 C 
ATOM     25  O   UNL     1      60.236  61.542  70.668  0.00  0.00    +0.000 OA
ATOM     26  N   UNL     1      61.253  62.601  70.747  0.00  0.00    +0.000 NA
ENDROOT
TORSDOF 0
ENDMDL
MODEL 6
REMARK VINA RESULT:   -10.629      2.972      4.738
REMARK INTER + INTRA:         -10.629
REMARK INTER:                 -10.629
REMARK INTRA:                   0.000
REMARK UNBOUND:                 0.000
ROOT
REMARK  Name = protirelin
REMARK                            x       y       z     vdW  Elec       q    Type
REMARK                         _______ _______ _______ _____ _____    ______ ____
ATOM      1  N   UNL     1      64.824  67.496  71.428  0.00  0.00    +0.000 NA
ATOM      2  C   UNL     1      65.141  66.897  70.957  0.00  0.00    +0.000 C 
ATOM      3  O   UNL     1      65.864  67.012  70.576  0.00  0.00    +0.000 OA
ATOM      4  C   UNL     1      64.736  66.183  70.868  0.00  0.00    +0.000 C 
ATOM      5  C   UNL     1      64.985  65.539  70.418  0.00  0.00    +0.000 C 
ATOM      6  C   UNL     1      64.414  64.946  70.485  0.00  0.00    +0.000 C 
ATOM      7  C   UNL     1      63.814  65.226  70.978  0.00  0.00    +0.000 C 
ATOM      8  N   UNL     1      64.013  65.991  71.214  0.00  0.00    +0.000 N 
ATOM      9  C   UNL     1      63.567  66.477  71.709  0.00  0.00    +0.000 C 
ATOM     10  O   UNL     1      63.838  67.232  71.898  0.00  0.00    +0.000 OA
ATOM     11  C   UNL     1      62.850  66.206  72.015  0.00  0.00    +0.000 C 
ATOM     12  C   UNL     1      62.404  66.692  72.511  0.00  0.00    +0.000 C 
ATOM     13  C   UNL     1      62.675  67.449  72.700  0.00  0.00    +0.000 A 
ATOM     14  C   UNL     1      62.291  67.994  73.185  0.00  0.00    +0.000 A 
ATOM     15  N   UNL     1      62.756  68.675  73.222  0.00  0.00    +0.000 NA
ATOM     16  C   UNL     1      63.428  68.550  72.759  0.00  0.00    +0.000 A 
ATOM     17  N   UNL     1      63.378  67.792  72.437  0.00  0.00    +0.000 NA
ATOM     18  N   UNL     1      62.579  65.451  71.826  0.00  0.00    +0.000 NA
ATOM     19  C   UNL     1      61.862  65.181  72.132  0.00  0.00    +0.000 C 
ATOM     20  O   UNL     1      61.416  65.668  72.627  0.00  0.00    +0.000 OA
ATOM     21  C   UNL     1      61.591  64.425  71.943  0.00  0.00    +0.000 C 
ATOM     22  C   UNL     1      61.975  63.880  71.458  0.00  0.00    +0.000 C 
ATOM     23  C   UNL     1      61.510  63.200  71.421  0.00  0.00    +0.000 C 
ATOM     24  C   UNL     1      60.838  63.324  71.883  0.00  0.00    +0.000 C 
ATOM     25  O   UNL     1      60.225  62.786  72.002  0.00  0.00    +0.000 OA
ATOM     26  N   UNL     1      60.888  64.082  72.206  0.00  0.00    +0.000 NA
ENDROOT
TORSDOF 0
ENDMDL
MODEL 7
REMARK VINA RESULT:   -10.607      2.981      4.107
REMARK INTER + INTRA:         -10.607
REMARK INTER:                 -10.607
REMARK INTRA:                   0.000
REMARK UNBOUND:                 0.000
ROOT
REMARK  Name = protirelin
REMARK                            x       y       z     vdW  Elec       q    Type
REMARK                         _______ _______ _______ _____ _____    ______ ____
ATOM      1  N   UNL     1      59.721  67.268  73.105  0.00  0.00    +0.000 NA
ATOM      2  C   UNL     1      59.007  66.861  73.038  0.00  0.00    +0.000 C 
ATOM      3  O   UNL     1      58.296  67.245  73.206  0.00  0.00    +0.000 OA
ATOM      4  C   UNL     1      59.003  66.070  72.802  0.00  0.00    +0.000 C 
ATOM      5  C   UNL     1      58.334  65.595  72.711  0.00  0.00    +0.000 C 
ATOM      6  C   UNL     1      58.585  64.846  72.469  0.00  0.00    +0.000 C 
ATOM      7  C   UNL     1      59.408  64.861  72.410  0.00  0.00    +0.000 C 
ATOM      8  N   UNL     1      59.666  65.616  72.616  0.00  0.00    +0.000 N 
ATOM      9  C   UNL     1      60.450  65.874  72.633  0.00  0.00    +0.000 C 
ATOM     10  O   UNL     1      60.624  66.649  72.851  0.00  0.00    +0.000 OA
ATOM     11  C   UNL     1      61.058  65.354  72.431  0.00  0.00    +0.000 C 
ATOM     12  C   UNL     1      61.842  65.611  72.448  0.00  0.00    +0.000 C 
ATOM     13  C   UNL     1      62.017  66.388  72.666  0.00  0.00    +0.000 A 
ATOM     14  C   UNL     1      62.770  66.721  72.708  0.00  0.00    +0.000 A 
ATOM     15  N   UNL     1      62.689  67.506  72.949  0.00  0.00    +0.000 NA
ATOM     16  C   UNL     1      61.884  67.658  73.055  0.00  0.00    +0.000 A 
ATOM     17  N   UNL     1      61.469  66.966  72.881  0.00  0.00    +0.000 NA
ATOM     18  N   UNL     1      60.883  64.578  72.213  0.00  0.00    +0.000 NA
ATOM     19  C   UNL     1      61.492  64.059  72.012  0.00  0.00    +0.000 C 
ATOM     20  O   UNL     1      62.275  64.316  72.028  0.00  0.00    +0.000 OA
ATOM     21  C   UNL     1      61.317  63.283  71.793  0.00  0.00    +0.000 C 
ATOM     22  C   UNL     1      60.563  62.949  71.751  0.00  0.00    +0.000 C 
ATOM     23  C   UNL     1      60.646  62.164  71.511  0.00  0.00    +0.000 C 
ATOM     24  C   UNL     1      61.450  62.013  71.404  0.00  0.00    +0.000 C 
ATOM     25  O   UNL     1      61.780  61.296  71.165  0.00  0.00    +0.000 OA
ATOM     26  N   UNL     1      61.864  62.704  71.579  0.00  0.00    +0.000 NA
ENDROOT
TORSDOF 0
ENDMDL
MODEL 8
REMARK VINA RESULT:   -10.340      3.243      4.766
REMARK INTER + INTRA:         -10.340
REMARK INTER:                 -10.340
REMARK INTRA:                   0.000
REMARK UNBOUND:                 0.000
ROOT
REMARK  Name = protirelin
REMARK                            x       y       z     vdW  Elec       q    Type
REMARK                         _______ _______ _______ _____ _____    ______ ____
ATOM      1  N   UNL     1      63.867  66.089  71.493  0.00  0.00    +0.000 NA
ATOM      2  C   UNL     1      63.694  65.348  71.175  0.00  0.00    +0.000 C 
ATOM      3  O   UNL     1      64.278  64.924  70.776  0.00  0.00    +0.000 OA
ATOM      4  C   UNL     1      62.936  65.031  71.256  0.00  0.00    +0.000 C 
ATOM      5  C   UNL     1      62.684  64.300  70.968  0.00  0.00    +0.000 C 
ATOM      6  C   UNL     1      61.889  64.206  71.173  0.00  0.00    +0.000 C 
ATOM      7  C   UNL     1      61.653  64.879  71.587  0.00  0.00    +0.000 C 
ATOM      8  N   UNL     1      62.299  65.389  71.639  0.00  0.00    +0.000 N 
ATOM      9  C   UNL     1      62.307  66.127  72.008  0.00  0.00    +0.000 C 
ATOM     10  O   UNL     1      62.998  66.576  72.015  0.00  0.00    +0.000 OA
ATOM     11  C   UNL     1      61.623  66.414  72.370  0.00  0.00    +0.000 C 
ATOM     12  C   UNL     1      61.631  67.151  72.739  0.00  0.00    +0.000 C 
ATOM     13  C   UNL     1      62.323  67.602  72.746  0.00  0.00    +0.000 A 
ATOM     14  C   UNL     1      62.414  68.345  73.091  0.00  0.00    +0.000 A 
ATOM     15  N   UNL     1      63.192  68.591  72.968  0.00  0.00    +0.000 NA
ATOM     16  C   UNL     1      63.582  67.998  72.545  0.00  0.00    +0.000 A 
ATOM     17  N   UNL     1      63.045  67.387  72.408  0.00  0.00    +0.000 NA
ATOM     18  N   UNL     1      60.932  65.964  72.363  0.00  0.00    +0.000 NA
ATOM     19  C   UNL     1      60.250  66.251  72.724  0.00  0.00    +0.000 C 
ATOM     20  O   UNL     1      60.258  66.989  73.093  0.00  0.00    +0.000 OA
ATOM     21  C   UNL     1      59.558  65.802  72.718  0.00  0.00    +0.000 C 
ATOM     22  C   UNL     1      59.467  65.058  72.372  0.00  0.00    +0.000 C 
ATOM     23  C   UNL     1      58.689  64.813  72.496  0.00  0.00    +0.000 C 
ATOM     24  C   UNL     1      58.299  65.404  72.918  0.00  0.00    +0.000 C 
ATOM     25  O   UNL     1      57.511  65.388  73.160  0.00  0.00    +0.000 OA
ATOM     26  N   UNL     1      58.836  66.015  73.055  0.00  0.00    +0.000 NA
ENDROOT
TORSDOF 0
ENDMDL
MODEL 9
REMARK VINA RESULT:   -10.288      2.738      4.678
REMARK INTER + INTRA:         -10.288
REMARK INTER:                 -10.288
REMARK INTRA:                   0.000
REMARK UNBOUND:                 0.000
ROOT
REMARK  Name = protirelin
REMARK                            x       y       z     vdW  Elec       q    Type
REMARK                         _______ _______ _______ _____ _____    ______ ____
ATOM      1  N   UNL     1      59.956  63.975  71.946  0.00  0.00    +0.000 NA
ATOM      2  C   UNL     1      60.433  63.423  71.561  0.00  0.00    +0.000 C 
ATOM      3  O   UNL     1      60.126  62.686  71.355  0.00  0.00    +0.000 OA
ATOM      4  C   UNL     1      61.218  63.608  71.383  0.00  0.00    +0.000 C 
ATOM      5  C   UNL     1      61.757  63.113  71.002  0.00  0.00    +0.000 C 
ATOM      6  C   UNL     1      62.473  63.519  70.937  0.00  0.00    +0.000 C 
ATOM      7  C   UNL     1      62.375  64.264  71.279  0.00  0.00    +0.000 C 
ATOM      8  N   UNL     1      61.599  64.319  71.554  0.00  0.00    +0.000 N 
ATOM      9  C   UNL     1      61.264  64.970  71.934  0.00  0.00    +0.000 C 
ATOM     10  O   UNL     1      60.478  64.944  72.180  0.00  0.00    +0.000 OA
ATOM     11  C   UNL     1      61.717  65.646  72.069  0.00  0.00    +0.000 C 
ATOM     12  C   UNL     1      61.382  66.298  72.449  0.00  0.00    +0.000 C 
ATOM     13  C   UNL     1      60.594  66.272  72.694  0.00  0.00    +0.000 A 
ATOM     14  C   UNL     1      60.186  66.877  73.079  0.00  0.00    +0.000 A 
ATOM     15  N   UNL     1      59.416  66.616  73.221  0.00  0.00    +0.000 NA
ATOM     16  C   UNL     1      59.349  65.848  72.924  0.00  0.00    +0.000 A 
ATOM     17  N   UNL     1      60.076  65.636  72.598  0.00  0.00    +0.000 NA
ATOM     18  N   UNL     1      62.503  65.672  71.823  0.00  0.00    +0.000 NA
ATOM     19  C   UNL     1      62.955  66.349  71.958  0.00  0.00    +0.000 C 
ATOM     20  O   UNL     1      62.620  67.000  72.338  0.00  0.00    +0.000 OA
ATOM     21  C   UNL     1      63.743  66.375  71.712  0.00  0.00    +0.000 C 
ATOM     22  C   UNL     1      64.151  65.769  71.327  0.00  0.00    +0.000 C 
ATOM     23  C   UNL     1      64.920  66.031  71.186  0.00  0.00    +0.000 C 
ATOM     24  C   UNL     1      64.988  66.798  71.483  0.00  0.00    +0.000 C 
ATOM     25  O   UNL     1      65.665  67.269  71.458  0.00  0.00    +0.000 OA
ATOM     26  N   UNL     1      64.261  67.010  71.808  0.00  0.00    +0.000 NA
ENDROOT
TORSDOF 0
ENDMDL
