MODEL 1
REMARK VINA RESULT:    -8.209      0.000      0.000
REMARK INTER + INTRA:          -8.209
REMARK INTER:                  -8.209
REMARK INTRA:                   0.000
REMARK UNBOUND:                 0.000
ROOT
REMARK  Name = protheobromine
REMARK                            x       y       z     vdW  Elec       q    Type
REMARK                         _______ _______ _______ _____ _____    ______ ____
ATOM      1  C   UNL     1      62.374  61.639  63.978  0.00  0.00    +0.000 C 
ATOM      2  C   UNL     1      61.778  61.767  64.535  0.00  0.00    +0.000 C 
ATOM      3  O   UNL     1      61.013  61.494  64.391  0.00  0.00    +0.000 OA
ATOM      4  C   UNL     1      61.949  62.166  65.237  0.00  0.00    +0.000 C 
ATOM      5  N   UNL     1      61.353  62.293  65.794  0.00  0.00    +0.000 N 
ATOM      6  C   UNL     1      60.588  62.021  65.650  0.00  0.00    +0.000 A 
ATOM      7  O   UNL     1      60.418  61.622  64.948  0.00  0.00    +0.000 OA
ATOM      8  N   UNL     1      59.994  62.148  66.206  0.00  0.00    +0.000 N 
ATOM      9  C   UNL     1      59.228  61.876  66.062  0.00  0.00    +0.000 C 
ATOM     10  C   UNL     1      60.163  62.547  66.908  0.00  0.00    +0.000 A 
ATOM     11  C   UNL     1      60.929  62.819  67.053  0.00  0.00    +0.000 A 
ATOM     12  N   UNL     1      60.932  63.192  67.788  0.00  0.00    +0.000 N 
ATOM     13  C   UNL     1      61.585  63.545  68.150  0.00  0.00    +0.000 C 
ATOM     14  C   UNL     1      60.169  63.151  68.099  0.00  0.00    +0.000 A 
ATOM     15  N   UNL     1      59.695  62.752  67.555  0.00  0.00    +0.000 NA
ATOM     16  C   UNL     1      61.524  62.692  66.495  0.00  0.00    +0.000 A 
ATOM     17  O   UNL     1      62.290  62.964  66.640  0.00  0.00    +0.000 OA
ENDROOT
TORSDOF 0
ENDMDL
MODEL 2
REMARK VINA RESULT:    -7.933      1.132      2.838
REMARK INTER + INTRA:          -7.933
REMARK INTER:                  -7.933
REMARK INTRA:                   0.000
REMARK UNBOUND:                 0.000
ROOT
REMARK  Name = protheobromine
REMARK                            x       y       z     vdW  Elec       q    Type
REMARK                         _______ _______ _______ _____ _____    ______ ____
ATOM      1  C   UNL     1      61.325  63.829  68.440  0.00  0.00    +0.000 C 
ATOM      2  C   UNL     1      60.999  63.370  67.835  0.00  0.00    +0.000 C 
ATOM      3  O   UNL     1      60.207  63.143  67.871  0.00  0.00    +0.000 OA
ATOM      4  C   UNL     1      61.467  63.139  67.196  0.00  0.00    +0.000 C 
ATOM      5  N   UNL     1      61.142  62.680  66.592  0.00  0.00    +0.000 N 
ATOM      6  C   UNL     1      60.349  62.453  66.627  0.00  0.00    +0.000 A 
ATOM      7  O   UNL     1      59.882  62.685  67.267  0.00  0.00    +0.000 OA
ATOM      8  N   UNL     1      60.024  61.995  66.024  0.00  0.00    +0.000 N 
ATOM      9  C   UNL     1      59.232  61.768  66.059  0.00  0.00    +0.000 C 
ATOM     10  C   UNL     1      60.491  61.763  65.384  0.00  0.00    +0.000 A 
ATOM     11  C   UNL     1      61.284  61.990  65.349  0.00  0.00    +0.000 A 
ATOM     12  N   UNL     1      61.607  61.681  64.656  0.00  0.00    +0.000 N 
ATOM     13  C   UNL     1      62.386  61.774  64.401  0.00  0.00    +0.000 C 
ATOM     14  C   UNL     1      61.014  61.263  64.263  0.00  0.00    +0.000 A 
ATOM     15  N   UNL     1      60.325  61.314  64.713  0.00  0.00    +0.000 NA
ATOM     16  C   UNL     1      61.609  62.449  65.953  0.00  0.00    +0.000 A 
ATOM     17  O   UNL     1      62.402  62.675  65.918  0.00  0.00    +0.000 OA
ENDROOT
TORSDOF 0
ENDMDL
MODEL 3
REMARK VINA RESULT:    -7.464      1.986      3.264
REMARK INTER + INTRA:          -7.464
REMARK INTER:                  -7.464
REMARK INTRA:                   0.000
REMARK UNBOUND:                 0.000
ROOT
REMARK  Name = protheobromine
REMARK                            x       y       z     vdW  Elec       q    Type
REMARK                         _______ _______ _______ _____ _____    ______ ____
ATOM      1  C   UNL     1      59.751  62.198  66.410  0.00  0.00    +0.000 C 
ATOM      2  C   UNL     1      60.172  62.548  67.027  0.00  0.00    +0.000 C 
ATOM      3  O   UNL     1      60.599  63.241  66.894  0.00  0.00    +0.000 OA
ATOM      4  C   UNL     1      60.166  62.205  67.777  0.00  0.00    +0.000 C 
ATOM      5  N   UNL     1      60.588  62.555  68.395  0.00  0.00    +0.000 N 
ATOM      6  C   UNL     1      61.015  63.249  68.261  0.00  0.00    +0.000 A 
ATOM      7  O   UNL     1      61.020  63.591  67.511  0.00  0.00    +0.000 OA
ATOM      8  N   UNL     1      61.435  63.598  68.878  0.00  0.00    +0.000 N 
ATOM      9  C   UNL     1      61.862  64.292  68.745  0.00  0.00    +0.000 C 
ATOM     10  C   UNL     1      61.430  63.256  69.628  0.00  0.00    +0.000 A 
ATOM     11  C   UNL     1      61.003  62.562  69.762  0.00  0.00    +0.000 A 
ATOM     12  N   UNL     1      61.099  62.352  70.553  0.00  0.00    +0.000 N 
ATOM     13  C   UNL     1      60.767  61.694  70.924  0.00  0.00    +0.000 C 
ATOM     14  C   UNL     1      61.585  62.915  70.909  0.00  0.00    +0.000 A 
ATOM     15  N   UNL     1      61.789  63.473  70.338  0.00  0.00    +0.000 NA
ATOM     16  C   UNL     1      60.582  62.212  69.144  0.00  0.00    +0.000 A 
ATOM     17  O   UNL     1      60.155  61.518  69.278  0.00  0.00    +0.000 OA
ENDROOT
TORSDOF 0
ENDMDL
MODEL 4
REMARK VINA RESULT:    -7.431      1.148      2.100
REMARK INTER + INTRA:          -7.431
REMARK INTER:                  -7.431
REMARK INTRA:                   0.000
REMARK UNBOUND:                 0.000
ROOT
REMARK  Name = protheobromine
REMARK                            x       y       z     vdW  Elec       q    Type
REMARK                         _______ _______ _______ _____ _____    ______ ____
ATOM      1  C   UNL     1      60.877  60.437  62.795  0.00  0.00    +0.000 C 
ATOM      2  C   UNL     1      61.159  60.884  63.430  0.00  0.00    +0.000 C 
ATOM      3  O   UNL     1      61.932  61.170  63.421  0.00  0.00    +0.000 OA
ATOM      4  C   UNL     1      60.667  61.043  64.072  0.00  0.00    +0.000 C 
ATOM      5  N   UNL     1      60.949  61.490  64.707  0.00  0.00    +0.000 N 
ATOM      6  C   UNL     1      61.723  61.777  64.698  0.00  0.00    +0.000 A 
ATOM      7  O   UNL     1      62.214  61.617  64.054  0.00  0.00    +0.000 OA
ATOM      8  N   UNL     1      62.004  62.223  65.331  0.00  0.00    +0.000 N 
ATOM      9  C   UNL     1      62.778  62.509  65.322  0.00  0.00    +0.000 C 
ATOM     10  C   UNL     1      61.513  62.383  65.974  0.00  0.00    +0.000 A 
ATOM     11  C   UNL     1      60.740  62.097  65.983  0.00  0.00    +0.000 A 
ATOM     12  N   UNL     1      60.385  62.341  66.687  0.00  0.00    +0.000 N 
ATOM     13  C   UNL     1      59.612  62.176  66.923  0.00  0.00    +0.000 C 
ATOM     14  C   UNL     1      60.940  62.778  67.113  0.00  0.00    +0.000 A 
ATOM     15  N   UNL     1      61.636  62.804  66.672  0.00  0.00    +0.000 NA
ATOM     16  C   UNL     1      60.457  61.650  65.349  0.00  0.00    +0.000 A 
ATOM     17  O   UNL     1      59.684  61.363  65.358  0.00  0.00    +0.000 OA
ENDROOT
TORSDOF 0
ENDMDL
MODEL 5
REMARK VINA RESULT:    -7.308      5.273      7.165
REMARK INTER + INTRA:          -7.308
REMARK INTER:                  -7.308
REMARK INTRA:                   0.000
REMARK UNBOUND:                 0.000
ROOT
REMARK  Name = protheobromine
REMARK                            x       y       z     vdW  Elec       q    Type
REMARK                         _______ _______ _______ _____ _____    ______ ____
ATOM      1  C   UNL     1      66.453  67.642  69.981  0.00  0.00    +0.000 C 
ATOM      2  C   UNL     1      65.794  67.341  70.376  0.00  0.00    +0.000 C 
ATOM      3  O   UNL     1      65.522  67.708  71.063  0.00  0.00    +0.000 OA
ATOM      4  C   UNL     1      65.409  66.673  70.084  0.00  0.00    +0.000 C 
ATOM      5  N   UNL     1      64.749  66.371  70.480  0.00  0.00    +0.000 N 
ATOM      6  C   UNL     1      64.477  66.738  71.167  0.00  0.00    +0.000 A 
ATOM      7  O   UNL     1      64.864  67.406  71.458  0.00  0.00    +0.000 OA
ATOM      8  N   UNL     1      63.819  66.437  71.561  0.00  0.00    +0.000 N 
ATOM      9  C   UNL     1      63.547  66.804  72.248  0.00  0.00    +0.000 C 
ATOM     10  C   UNL     1      63.432  65.769  71.270  0.00  0.00    +0.000 A 
ATOM     11  C   UNL     1      63.705  65.402  70.583  0.00  0.00    +0.000 A 
ATOM     12  N   UNL     1      63.216  64.757  70.427  0.00  0.00    +0.000 N 
ATOM     13  C   UNL     1      63.288  64.235  69.792  0.00  0.00    +0.000 C 
ATOM     14  C   UNL     1      62.641  64.724  71.018  0.00  0.00    +0.000 A 
ATOM     15  N   UNL     1      62.775  65.350  71.538  0.00  0.00    +0.000 NA
ATOM     16  C   UNL     1      64.364  65.703  70.187  0.00  0.00    +0.000 A 
ATOM     17  O   UNL     1      64.636  65.337  69.501  0.00  0.00    +0.000 OA
ENDROOT
TORSDOF 0
ENDMDL
MODEL 6
REMARK VINA RESULT:    -7.290      4.690      5.690
REMARK INTER + INTRA:          -7.290
REMARK INTER:                  -7.290
REMARK INTRA:                   0.000
REMARK UNBOUND:                 0.000
ROOT
REMARK  Name = protheobromine
REMARK                            x       y       z     vdW  Elec       q    Type
REMARK                         _______ _______ _______ _____ _____    ______ ____
ATOM      1  C   UNL     1      60.515  62.125  70.711  0.00  0.00    +0.000 C 
ATOM      2  C   UNL     1      60.258  62.877  70.937  0.00  0.00    +0.000 C 
ATOM      3  O   UNL     1      60.005  63.011  71.711  0.00  0.00    +0.000 OA
ATOM      4  C   UNL     1      60.254  63.493  70.389  0.00  0.00    +0.000 C 
ATOM      5  N   UNL     1      59.997  64.244  70.615  0.00  0.00    +0.000 N 
ATOM      6  C   UNL     1      59.744  64.378  71.389  0.00  0.00    +0.000 A 
ATOM      7  O   UNL     1      59.748  63.761  71.937  0.00  0.00    +0.000 OA
ATOM      8  N   UNL     1      59.487  65.128  71.615  0.00  0.00    +0.000 N 
ATOM      9  C   UNL     1      59.235  65.262  72.389  0.00  0.00    +0.000 C 
ATOM     10  C   UNL     1      59.483  65.746  71.067  0.00  0.00    +0.000 A 
ATOM     11  C   UNL     1      59.736  65.612  70.293  0.00  0.00    +0.000 A 
ATOM     12  N   UNL     1      59.670  66.321  69.877  0.00  0.00    +0.000 N 
ATOM     13  C   UNL     1      59.864  66.437  69.084  0.00  0.00    +0.000 C 
ATOM     14  C   UNL     1      59.378  66.893  70.394  0.00  0.00    +0.000 A 
ATOM     15  N   UNL     1      59.262  66.537  71.129  0.00  0.00    +0.000 NA
ATOM     16  C   UNL     1      59.993  64.860  70.067  0.00  0.00    +0.000 A 
ATOM     17  O   UNL     1      60.245  64.726  69.293  0.00  0.00    +0.000 OA
ENDROOT
TORSDOF 0
ENDMDL
MODEL 7
REMARK VINA RESULT:    -7.275      2.544      4.501
REMARK INTER + INTRA:          -7.275
REMARK INTER:                  -7.275
REMARK INTRA:                   0.000
REMARK UNBOUND:                 0.000
ROOT
REMARK  Name = protheobromine
REMARK                            x       y       z     vdW  Elec       q    Type
REMARK                         _______ _______ _______ _____ _____    ______ ____
ATOM      1  C   UNL     1      62.753  64.764  71.351  0.00  0.00    +0.000 C 
ATOM      2  C   UNL     1      62.274  64.176  71.024  0.00  0.00    +0.000 C 
ATOM      3  O   UNL     1      61.896  63.632  71.516  0.00  0.00    +0.000 OA
ATOM      4  C   UNL     1      62.174  64.134  70.207  0.00  0.00    +0.000 C 
ATOM      5  N   UNL     1      61.696  63.546  69.880  0.00  0.00    +0.000 N 
ATOM      6  C   UNL     1      61.317  63.001  70.371  0.00  0.00    +0.000 A 
ATOM      7  O   UNL     1      61.418  63.045  71.189  0.00  0.00    +0.000 OA
ATOM      8  N   UNL     1      60.839  62.414  70.045  0.00  0.00    +0.000 N 
ATOM      9  C   UNL     1      60.461  61.870  70.536  0.00  0.00    +0.000 C 
ATOM     10  C   UNL     1      60.739  62.371  69.227  0.00  0.00    +0.000 A 
ATOM     11  C   UNL     1      61.117  62.915  68.736  0.00  0.00    +0.000 A 
ATOM     12  N   UNL     1      60.917  62.737  67.956  0.00  0.00    +0.000 N 
ATOM     13  C   UNL     1      61.173  63.143  67.284  0.00  0.00    +0.000 C 
ATOM     14  C   UNL     1      60.414  62.083  67.965  0.00  0.00    +0.000 A 
ATOM     15  N   UNL     1      60.305  61.857  68.750  0.00  0.00    +0.000 NA
ATOM     16  C   UNL     1      61.596  63.503  69.062  0.00  0.00    +0.000 A 
ATOM     17  O   UNL     1      61.974  64.047  68.571  0.00  0.00    +0.000 OA
ENDROOT
TORSDOF 0
ENDMDL
MODEL 8
REMARK VINA RESULT:    -6.984      6.337      7.155
REMARK INTER + INTRA:          -6.984
REMARK INTER:                  -6.984
REMARK INTRA:                   0.000
REMARK UNBOUND:                 0.000
ROOT
REMARK  Name = protheobromine
REMARK                            x       y       z     vdW  Elec       q    Type
REMARK                         _______ _______ _______ _____ _____    ______ ____
ATOM      1  C   UNL     1      61.424  62.569  72.016  0.00  0.00    +0.000 C 
ATOM      2  C   UNL     1      61.264  63.350  72.232  0.00  0.00    +0.000 C 
ATOM      3  O   UNL     1      60.539  63.543  72.576  0.00  0.00    +0.000 OA
ATOM      4  C   UNL     1      61.829  63.937  72.103  0.00  0.00    +0.000 C 
ATOM      5  N   UNL     1      61.669  64.718  72.319  0.00  0.00    +0.000 N 
ATOM      6  C   UNL     1      60.944  64.910  72.663  0.00  0.00    +0.000 A 
ATOM      7  O   UNL     1      60.380  64.322  72.791  0.00  0.00    +0.000 OA
ATOM      8  N   UNL     1      60.785  65.690  72.878  0.00  0.00    +0.000 N 
ATOM      9  C   UNL     1      60.060  65.883  73.222  0.00  0.00    +0.000 C 
ATOM     10  C   UNL     1      61.350  66.278  72.750  0.00  0.00    +0.000 A 
ATOM     11  C   UNL     1      62.074  66.085  72.406  0.00  0.00    +0.000 A 
ATOM     12  N   UNL     1      62.520  66.776  72.348  0.00  0.00    +0.000 N 
ATOM     13  C   UNL     1      63.282  66.837  72.036  0.00  0.00    +0.000 C 
ATOM     14  C   UNL     1      62.072  67.396  72.655  0.00  0.00    +0.000 A 
ATOM     15  N   UNL     1      61.349  67.088  72.904  0.00  0.00    +0.000 NA
ATOM     16  C   UNL     1      62.234  65.304  72.190  0.00  0.00    +0.000 A 
ATOM     17  O   UNL     1      62.959  65.112  71.846  0.00  0.00    +0.000 OA
ENDROOT
TORSDOF 0
ENDMDL
MODEL 9
REMARK VINA RESULT:    -6.979      3.710      4.910
REMARK INTER + INTRA:          -6.979
REMARK INTER:                  -6.979
REMARK INTRA:                   0.000
REMARK UNBOUND:                 0.000
ROOT
REMARK  Name = protheobromine
REMARK                            x       y       z     vdW  Elec       q    Type
REMARK                         _______ _______ _______ _____ _____    ______ ____
ATOM      1  C   UNL     1      64.221  64.953  69.706  0.00  0.00    +0.000 C 
ATOM      2  C   UNL     1      63.493  64.566  69.748  0.00  0.00    +0.000 C 
ATOM      3  O   UNL     1      63.143  64.269  69.062  0.00  0.00    +0.000 OA
ATOM      4  C   UNL     1      63.117  64.475  70.476  0.00  0.00    +0.000 C 
ATOM      5  N   UNL     1      62.389  64.088  70.519  0.00  0.00    +0.000 N 
ATOM      6  C   UNL     1      62.039  63.791  69.833  0.00  0.00    +0.000 A 
ATOM      7  O   UNL     1      62.417  63.882  69.105  0.00  0.00    +0.000 OA
ATOM      8  N   UNL     1      61.312  63.404  69.875  0.00  0.00    +0.000 N 
ATOM      9  C   UNL     1      60.962  63.108  69.190  0.00  0.00    +0.000 C 
ATOM     10  C   UNL     1      60.934  63.313  70.603  0.00  0.00    +0.000 A 
ATOM     11  C   UNL     1      61.284  63.610  71.289  0.00  0.00    +0.000 A 
ATOM     12  N   UNL     1      60.786  63.439  71.924  0.00  0.00    +0.000 N 
ATOM     13  C   UNL     1      60.922  63.636  72.714  0.00  0.00    +0.000 C 
ATOM     14  C   UNL     1      60.128  63.037  71.631  0.00  0.00    +0.000 A 
ATOM     15  N   UNL     1      60.220  62.960  70.815  0.00  0.00    +0.000 NA
ATOM     16  C   UNL     1      62.012  63.997  71.247  0.00  0.00    +0.000 A 
ATOM     17  O   UNL     1      62.362  64.294  71.932  0.00  0.00    +0.000 OA
ENDROOT
TORSDOF 0
ENDMDL
