MODEL 1
REMARK VINA RESULT:   -11.934      0.000      0.000
REMARK INTER + INTRA:         -11.934
REMARK INTER:                 -11.934
REMARK INTRA:                   0.000
REMARK UNBOUND:                 0.000
ROOT
REMARK  Name = protriptyline
REMARK                            x       y       z     vdW  Elec       q    Type
REMARK                         _______ _______ _______ _____ _____    ______ ____
ATOM      1  C   UNL     1      61.938  64.214  68.871  0.00  0.00    +0.000 C 
ATOM      2  N   UNL     1      61.474  63.768  68.355  0.00  0.00    +0.000 NA
ATOM      3  C   UNL     1      61.798  63.487  67.649  0.00  0.00    +0.000 C 
ATOM      4  C   UNL     1      61.335  63.041  67.133  0.00  0.00    +0.000 C 
ATOM      5  C   UNL     1      61.659  62.759  66.427  0.00  0.00    +0.000 C 
ATOM      6  C   UNL     1      61.196  62.313  65.911  0.00  0.00    +0.000 C 
ATOM      7  C   UNL     1      61.573  62.059  65.221  0.00  0.00    +0.000 A 
ATOM      8  C   UNL     1      62.357  62.313  65.196  0.00  0.00    +0.000 A 
ATOM      9  C   UNL     1      62.834  62.118  64.551  0.00  0.00    +0.000 A 
ATOM     10  C   UNL     1      62.524  61.668  63.932  0.00  0.00    +0.000 A 
ATOM     11  C   UNL     1      61.740  61.413  63.958  0.00  0.00    +0.000 A 
ATOM     12  C   UNL     1      61.264  61.609  64.603  0.00  0.00    +0.000 A 
ATOM     13  C   UNL     1      60.503  61.302  64.520  0.00  0.00    +0.000 C 
ATOM     14  C   UNL     1      59.863  61.369  65.035  0.00  0.00    +0.000 C 
ATOM     15  C   UNL     1      59.824  61.760  65.761  0.00  0.00    +0.000 A 
ATOM     16  C   UNL     1      60.419  62.180  66.151  0.00  0.00    +0.000 A 
ATOM     17  C   UNL     1      60.264  62.533  66.880  0.00  0.00    +0.000 A 
ATOM     18  C   UNL     1      59.515  62.466  67.220  0.00  0.00    +0.000 A 
ATOM     19  C   UNL     1      58.921  62.046  66.831  0.00  0.00    +0.000 A 
ATOM     20  C   UNL     1      59.076  61.693  66.101  0.00  0.00    +0.000 A 
ENDROOT
TORSDOF 0
ENDMDL
MODEL 2
REMARK VINA RESULT:   -11.169      3.221      5.369
REMARK INTER + INTRA:         -11.169
REMARK INTER:                 -11.169
REMARK INTRA:                   0.000
REMARK UNBOUND:                 0.000
ROOT
REMARK  Name = protriptyline
REMARK                            x       y       z     vdW  Elec       q    Type
REMARK                         _______ _______ _______ _____ _____    ______ ____
ATOM      1  C   UNL     1      59.676  66.580  69.279  0.00  0.00    +0.000 C 
ATOM      2  N   UNL     1      59.834  65.771  69.282  0.00  0.00    +0.000 NA
ATOM      3  C   UNL     1      60.123  65.410  69.966  0.00  0.00    +0.000 C 
ATOM      4  C   UNL     1      60.281  64.601  69.969  0.00  0.00    +0.000 C 
ATOM      5  C   UNL     1      60.570  64.240  70.653  0.00  0.00    +0.000 C 
ATOM      6  C   UNL     1      60.728  63.430  70.656  0.00  0.00    +0.000 C 
ATOM      7  C   UNL     1      61.015  63.125  71.368  0.00  0.00    +0.000 A 
ATOM      8  C   UNL     1      61.085  63.713  71.941  0.00  0.00    +0.000 A 
ATOM      9  C   UNL     1      61.363  63.523  72.695  0.00  0.00    +0.000 A 
ATOM     10  C   UNL     1      61.571  62.745  72.873  0.00  0.00    +0.000 A 
ATOM     11  C   UNL     1      61.501  62.157  72.299  0.00  0.00    +0.000 A 
ATOM     12  C   UNL     1      61.223  62.347  71.546  0.00  0.00    +0.000 A 
ATOM     13  C   UNL     1      61.196  61.683  71.058  0.00  0.00    +0.000 C 
ATOM     14  C   UNL     1      60.954  61.631  70.272  0.00  0.00    +0.000 C 
ATOM     15  C   UNL     1      60.679  62.232  69.777  0.00  0.00    +0.000 A 
ATOM     16  C   UNL     1      60.579  63.034  69.949  0.00  0.00    +0.000 A 
ATOM     17  C   UNL     1      60.294  63.547  69.370  0.00  0.00    +0.000 A 
ATOM     18  C   UNL     1      60.109  63.259  68.618  0.00  0.00    +0.000 A 
ATOM     19  C   UNL     1      60.209  62.459  68.447  0.00  0.00    +0.000 A 
ATOM     20  C   UNL     1      60.495  61.945  69.027  0.00  0.00    +0.000 A 
ENDROOT
TORSDOF 0
ENDMDL
MODEL 3
REMARK VINA RESULT:   -11.104      3.264      5.975
REMARK INTER + INTRA:         -11.104
REMARK INTER:                 -11.104
REMARK INTRA:                   0.000
REMARK UNBOUND:                 0.000
ROOT
REMARK  Name = protriptyline
REMARK                            x       y       z     vdW  Elec       q    Type
REMARK                         _______ _______ _______ _____ _____    ______ ____
ATOM      1  C   UNL     1      60.075  62.340  67.566  0.00  0.00    +0.000 C 
ATOM      2  N   UNL     1      60.125  62.702  68.306  0.00  0.00    +0.000 NA
ATOM      3  C   UNL     1      60.501  62.314  68.930  0.00  0.00    +0.000 C 
ATOM      4  C   UNL     1      60.551  62.676  69.670  0.00  0.00    +0.000 C 
ATOM      5  C   UNL     1      60.927  62.288  70.294  0.00  0.00    +0.000 C 
ATOM      6  C   UNL     1      60.977  62.650  71.033  0.00  0.00    +0.000 C 
ATOM      7  C   UNL     1      61.363  62.215  71.619  0.00  0.00    +0.000 A 
ATOM      8  C   UNL     1      61.625  61.488  71.330  0.00  0.00    +0.000 A 
ATOM      9  C   UNL     1      62.027  60.967  71.829  0.00  0.00    +0.000 A 
ATOM     10  C   UNL     1      62.166  61.174  72.615  0.00  0.00    +0.000 A 
ATOM     11  C   UNL     1      61.904  61.901  72.904  0.00  0.00    +0.000 A 
ATOM     12  C   UNL     1      61.503  62.421  72.405  0.00  0.00    +0.000 A 
ATOM     13  C   UNL     1      61.290  63.114  72.800  0.00  0.00    +0.000 C 
ATOM     14  C   UNL     1      60.886  63.770  72.507  0.00  0.00    +0.000 C 
ATOM     15  C   UNL     1      60.594  63.897  71.746  0.00  0.00    +0.000 A 
ATOM     16  C   UNL     1      60.635  63.398  71.090  0.00  0.00    +0.000 A 
ATOM     17  C   UNL     1      60.304  63.633  70.372  0.00  0.00    +0.000 A 
ATOM     18  C   UNL     1      59.932  64.368  70.309  0.00  0.00    +0.000 A 
ATOM     19  C   UNL     1      59.892  64.866  70.965  0.00  0.00    +0.000 A 
ATOM     20  C   UNL     1      60.223  64.631  71.684  0.00  0.00    +0.000 A 
ENDROOT
TORSDOF 0
ENDMDL
MODEL 4
REMARK VINA RESULT:   -10.811      3.285      5.249
REMARK INTER + INTRA:         -10.811
REMARK INTER:                 -10.811
REMARK INTRA:                   0.000
REMARK UNBOUND:                 0.000
ROOT
REMARK  Name = protriptyline
REMARK                            x       y       z     vdW  Elec       q    Type
REMARK                         _______ _______ _______ _____ _____    ______ ____
ATOM      1  C   UNL     1      59.735  67.005  70.967  0.00  0.00    +0.000 C 
ATOM      2  N   UNL     1      59.983  66.247  71.177  0.00  0.00    +0.000 NA
ATOM      3  C   UNL     1      59.989  65.644  70.613  0.00  0.00    +0.000 C 
ATOM      4  C   UNL     1      60.237  64.886  70.824  0.00  0.00    +0.000 C 
ATOM      5  C   UNL     1      60.243  64.283  70.259  0.00  0.00    +0.000 C 
ATOM      6  C   UNL     1      60.491  63.525  70.470  0.00  0.00    +0.000 C 
ATOM      7  C   UNL     1      60.476  62.963  69.865  0.00  0.00    +0.000 A 
ATOM      8  C   UNL     1      60.207  63.291  69.157  0.00  0.00    +0.000 A 
ATOM      9  C   UNL     1      60.150  62.821  68.481  0.00  0.00    +0.000 A 
ATOM     10  C   UNL     1      60.362  62.024  68.514  0.00  0.00    +0.000 A 
ATOM     11  C   UNL     1      60.630  61.697  69.222  0.00  0.00    +0.000 A 
ATOM     12  C   UNL     1      60.687  62.167  69.898  0.00  0.00    +0.000 A 
ATOM     13  C   UNL     1      60.965  61.735  70.543  0.00  0.00    +0.000 C 
ATOM     14  C   UNL     1      61.101  61.993  71.314  0.00  0.00    +0.000 C 
ATOM     15  C   UNL     1      60.993  62.747  71.633  0.00  0.00    +0.000 A 
ATOM     16  C   UNL     1      60.721  63.429  71.256  0.00  0.00    +0.000 A 
ATOM     17  C   UNL     1      60.652  64.134  71.678  0.00  0.00    +0.000 A 
ATOM     18  C   UNL     1      60.855  64.157  72.478  0.00  0.00    +0.000 A 
ATOM     19  C   UNL     1      61.127  63.475  72.855  0.00  0.00    +0.000 A 
ATOM     20  C   UNL     1      61.196  62.769  72.432  0.00  0.00    +0.000 A 
ENDROOT
TORSDOF 0
ENDMDL
MODEL 5
REMARK VINA RESULT:   -10.658      3.320      6.383
REMARK INTER + INTRA:         -10.658
REMARK INTER:                 -10.658
REMARK INTRA:                   0.000
REMARK UNBOUND:                 0.000
ROOT
REMARK  Name = protriptyline
REMARK                            x       y       z     vdW  Elec       q    Type
REMARK                         _______ _______ _______ _____ _____    ______ ____
ATOM      1  C   UNL     1      60.274  62.006  67.878  0.00  0.00    +0.000 C 
ATOM      2  N   UNL     1      60.499  62.066  68.669  0.00  0.00    +0.000 NA
ATOM      3  C   UNL     1      60.277  62.727  69.112  0.00  0.00    +0.000 C 
ATOM      4  C   UNL     1      60.502  62.786  69.903  0.00  0.00    +0.000 C 
ATOM      5  C   UNL     1      60.280  63.447  70.346  0.00  0.00    +0.000 C 
ATOM      6  C   UNL     1      60.506  63.506  71.137  0.00  0.00    +0.000 C 
ATOM      7  C   UNL     1      60.255  64.188  71.530  0.00  0.00    +0.000 A 
ATOM      8  C   UNL     1      59.820  64.680  71.031  0.00  0.00    +0.000 A 
ATOM      9  C   UNL     1      59.517  65.393  71.316  0.00  0.00    +0.000 A 
ATOM     10  C   UNL     1      59.651  65.613  72.100  0.00  0.00    +0.000 A 
ATOM     11  C   UNL     1      60.086  65.121  72.599  0.00  0.00    +0.000 A 
ATOM     12  C   UNL     1      60.389  64.409  72.313  0.00  0.00    +0.000 A 
ATOM     13  C   UNL     1      60.805  64.002  72.898  0.00  0.00    +0.000 C 
ATOM     14  C   UNL     1      61.191  63.275  72.844  0.00  0.00    +0.000 C 
ATOM     15  C   UNL     1      61.256  62.774  72.192  0.00  0.00    +0.000 A 
ATOM     16  C   UNL     1      60.950  62.878  71.431  0.00  0.00    +0.000 A 
ATOM     17  C   UNL     1      61.080  62.304  70.854  0.00  0.00    +0.000 A 
ATOM     18  C   UNL     1      61.516  61.626  71.035  0.00  0.00    +0.000 A 
ATOM     19  C   UNL     1      61.821  61.523  71.795  0.00  0.00    +0.000 A 
ATOM     20  C   UNL     1      61.691  62.097  72.373  0.00  0.00    +0.000 A 
ENDROOT
TORSDOF 0
ENDMDL
MODEL 6
REMARK VINA RESULT:   -10.538      3.899      7.390
REMARK INTER + INTRA:         -10.538
REMARK INTER:                 -10.538
REMARK INTRA:                   0.000
REMARK UNBOUND:                 0.000
ROOT
REMARK  Name = protriptyline
REMARK                            x       y       z     vdW  Elec       q    Type
REMARK                         _______ _______ _______ _____ _____    ______ ____
ATOM      1  C   UNL     1      62.008  63.853  68.836  0.00  0.00    +0.000 C 
ATOM      2  N   UNL     1      62.213  64.330  69.478  0.00  0.00    +0.000 NA
ATOM      3  C   UNL     1      62.893  64.797  69.443  0.00  0.00    +0.000 C 
ATOM      4  C   UNL     1      63.098  65.274  70.084  0.00  0.00    +0.000 C 
ATOM      5  C   UNL     1      63.777  65.742  70.049  0.00  0.00    +0.000 C 
ATOM      6  C   UNL     1      63.982  66.218  70.690  0.00  0.00    +0.000 C 
ATOM      7  C   UNL     1      64.671  66.664  70.599  0.00  0.00    +0.000 A 
ATOM      8  C   UNL     1      65.019  66.532  69.863  0.00  0.00    +0.000 A 
ATOM      9  C   UNL     1      65.716  66.925  69.659  0.00  0.00    +0.000 A 
ATOM     10  C   UNL     1      66.064  67.449  70.194  0.00  0.00    +0.000 A 
ATOM     11  C   UNL     1      65.716  67.580  70.930  0.00  0.00    +0.000 A 
ATOM     12  C   UNL     1      65.020  67.187  71.133  0.00  0.00    +0.000 A 
ATOM     13  C   UNL     1      64.765  67.395  71.889  0.00  0.00    +0.000 C 
ATOM     14  C   UNL     1      64.100  67.131  72.299  0.00  0.00    +0.000 C 
ATOM     15  C   UNL     1      63.524  66.594  72.054  0.00  0.00    +0.000 A 
ATOM     16  C   UNL     1      63.472  66.187  71.337  0.00  0.00    +0.000 A 
ATOM     17  C   UNL     1      62.845  65.669  71.202  0.00  0.00    +0.000 A 
ATOM     18  C   UNL     1      62.269  65.557  71.783  0.00  0.00    +0.000 A 
ATOM     19  C   UNL     1      62.321  65.964  72.499  0.00  0.00    +0.000 A 
ATOM     20  C   UNL     1      62.949  66.482  72.635  0.00  0.00    +0.000 A 
ENDROOT
TORSDOF 0
ENDMDL
MODEL 7
REMARK VINA RESULT:   -10.527      4.426      6.046
REMARK INTER + INTRA:         -10.527
REMARK INTER:                 -10.527
REMARK INTRA:                   0.000
REMARK UNBOUND:                 0.000
ROOT
REMARK  Name = protriptyline
REMARK                            x       y       z     vdW  Elec       q    Type
REMARK                         _______ _______ _______ _____ _____    ______ ____
ATOM      1  C   UNL     1      64.709  65.044  69.379  0.00  0.00    +0.000 C 
ATOM      2  N   UNL     1      64.125  64.977  69.958  0.00  0.00    +0.000 NA
ATOM      3  C   UNL     1      63.552  64.385  69.899  0.00  0.00    +0.000 C 
ATOM      4  C   UNL     1      62.968  64.318  70.478  0.00  0.00    +0.000 C 
ATOM      5  C   UNL     1      62.395  63.727  70.419  0.00  0.00    +0.000 C 
ATOM      6  C   UNL     1      61.811  63.660  70.997  0.00  0.00    +0.000 C 
ATOM      7  C   UNL     1      61.265  63.051  70.886  0.00  0.00    +0.000 A 
ATOM      8  C   UNL     1      61.426  62.625  70.198  0.00  0.00    +0.000 A 
ATOM      9  C   UNL     1      60.944  61.990  69.984  0.00  0.00    +0.000 A 
ATOM     10  C   UNL     1      60.302  61.782  70.459  0.00  0.00    +0.000 A 
ATOM     11  C   UNL     1      60.142  62.207  71.147  0.00  0.00    +0.000 A 
ATOM     12  C   UNL     1      60.624  62.842  71.360  0.00  0.00    +0.000 A 
ATOM     13  C   UNL     1      60.369  63.191  72.063  0.00  0.00    +0.000 C 
ATOM     14  C   UNL     1      60.692  63.834  72.465  0.00  0.00    +0.000 C 
ATOM     15  C   UNL     1      61.351  64.289  72.264  0.00  0.00    +0.000 A 
ATOM     16  C   UNL     1      61.849  64.211  71.610  0.00  0.00    +0.000 A 
ATOM     17  C   UNL     1      62.484  64.728  71.511  0.00  0.00    +0.000 A 
ATOM     18  C   UNL     1      62.621  65.324  72.066  0.00  0.00    +0.000 A 
ATOM     19  C   UNL     1      62.123  65.401  72.719  0.00  0.00    +0.000 A 
ATOM     20  C   UNL     1      61.488  64.883  72.818  0.00  0.00    +0.000 A 
ENDROOT
TORSDOF 0
ENDMDL
MODEL 8
REMARK VINA RESULT:   -10.526      2.501      5.541
REMARK INTER + INTRA:         -10.526
REMARK INTER:                 -10.526
REMARK INTRA:                   0.000
REMARK UNBOUND:                 0.000
ROOT
REMARK  Name = protriptyline
REMARK                            x       y       z     vdW  Elec       q    Type
REMARK                         _______ _______ _______ _____ _____    ______ ____
ATOM      1  C   UNL     1      61.305  63.126  66.830  0.00  0.00    +0.000 C 
ATOM      2  N   UNL     1      61.201  62.968  67.633  0.00  0.00    +0.000 NA
ATOM      3  C   UNL     1      61.535  63.470  68.198  0.00  0.00    +0.000 C 
ATOM      4  C   UNL     1      61.431  63.312  69.001  0.00  0.00    +0.000 C 
ATOM      5  C   UNL     1      61.764  63.813  69.566  0.00  0.00    +0.000 C 
ATOM      6  C   UNL     1      61.661  63.655  70.369  0.00  0.00    +0.000 C 
ATOM      7  C   UNL     1      62.016  64.190  70.888  0.00  0.00    +0.000 A 
ATOM      8  C   UNL     1      62.411  64.788  70.479  0.00  0.00    +0.000 A 
ATOM      9  C   UNL     1      62.805  65.382  70.896  0.00  0.00    +0.000 A 
ATOM     10  C   UNL     1      62.803  65.376  71.721  0.00  0.00    +0.000 A 
ATOM     11  C   UNL     1      62.408  64.779  72.129  0.00  0.00    +0.000 A 
ATOM     12  C   UNL     1      62.014  64.185  71.712  0.00  0.00    +0.000 A 
ATOM     13  C   UNL     1      61.657  63.645  72.223  0.00  0.00    +0.000 C 
ATOM     14  C   UNL     1      61.214  62.976  72.035  0.00  0.00    +0.000 C 
ATOM     15  C   UNL     1      61.017  62.680  71.289  0.00  0.00    +0.000 A 
ATOM     16  C   UNL     1      61.217  62.984  70.548  0.00  0.00    +0.000 A 
ATOM     17  C   UNL     1      60.962  62.600  69.864  0.00  0.00    +0.000 A 
ATOM     18  C   UNL     1      60.507  61.913  69.920  0.00  0.00    +0.000 A 
ATOM     19  C   UNL     1      60.308  61.611  70.661  0.00  0.00    +0.000 A 
ATOM     20  C   UNL     1      60.563  61.995  71.346  0.00  0.00    +0.000 A 
ENDROOT
TORSDOF 0
ENDMDL
MODEL 9
REMARK VINA RESULT:   -10.303      5.354      6.867
REMARK INTER + INTRA:         -10.303
REMARK INTER:                 -10.303
REMARK INTRA:                   0.000
REMARK UNBOUND:                 0.000
ROOT
REMARK  Name = protriptyline
REMARK                            x       y       z     vdW  Elec       q    Type
REMARK                         _______ _______ _______ _____ _____    ______ ____
ATOM      1  C   UNL     1      57.501  65.826  73.069  0.00  0.00    +0.000 C 
ATOM      2  N   UNL     1      58.308  65.699  72.954  0.00  0.00    +0.000 NA
ATOM      3  C   UNL     1      58.568  65.005  72.590  0.00  0.00    +0.000 C 
ATOM      4  C   UNL     1      59.375  64.878  72.474  0.00  0.00    +0.000 C 
ATOM      5  C   UNL     1      59.635  64.184  72.110  0.00  0.00    +0.000 C 
ATOM      6  C   UNL     1      60.441  64.057  71.994  0.00  0.00    +0.000 C 
ATOM      7  C   UNL     1      60.642  63.346  71.625  0.00  0.00    +0.000 A 
ATOM      8  C   UNL     1      59.972  62.900  71.446  0.00  0.00    +0.000 A 
ATOM      9  C   UNL     1      60.051  62.167  71.074  0.00  0.00    +0.000 A 
ATOM     10  C   UNL     1      60.801  61.882  70.883  0.00  0.00    +0.000 A 
ATOM     11  C   UNL     1      61.471  62.327  71.062  0.00  0.00    +0.000 A 
ATOM     12  C   UNL     1      61.391  63.060  71.433  0.00  0.00    +0.000 A 
ATOM     13  C   UNL     1      62.125  63.414  71.563  0.00  0.00    +0.000 C 
ATOM     14  C   UNL     1      62.291  64.140  71.915  0.00  0.00    +0.000 C 
ATOM     15  C   UNL     1      61.764  64.694  72.226  0.00  0.00    +0.000 A 
ATOM     16  C   UNL     1      60.940  64.656  72.261  0.00  0.00    +0.000 A 
ATOM     17  C   UNL     1      60.513  65.276  72.598  0.00  0.00    +0.000 A 
ATOM     18  C   UNL     1      60.909  65.934  72.902  0.00  0.00    +0.000 A 
ATOM     19  C   UNL     1      61.733  65.971  72.867  0.00  0.00    +0.000 A 
ATOM     20  C   UNL     1      62.161  65.351  72.529  0.00  0.00    +0.000 A 
ENDROOT
TORSDOF 0
ENDMDL
