MODEL 1
REMARK VINA RESULT:   -16.262      0.000      0.000
REMARK INTER + INTRA:         -16.262
REMARK INTER:                 -16.262
REMARK INTRA:                   0.000
REMARK UNBOUND:                 0.000
ROOT
REMARK  Name = protoverine
REMARK                            x       y       z     vdW  Elec       q    Type
REMARK                         _______ _______ _______ _____ _____    ______ ____
ATOM      1  C   UNL     1      60.551  61.623  69.486  0.00  0.00    +0.000 C 
ATOM      2  C   UNL     1      60.632  62.168  70.100  0.00  0.00    +0.000 C 
ATOM      3  C   UNL     1      60.120  62.140  70.746  0.00  0.00    +0.000 C 
ATOM      4  C   UNL     1      60.201  62.685  71.360  0.00  0.00    +0.000 C 
ATOM      5  C   UNL     1      60.794  63.257  71.328  0.00  0.00    +0.000 C 
ATOM      6  N   UNL     1      61.306  63.286  70.682  0.00  0.00    +0.000 NA
ATOM      7  C   UNL     1      61.225  62.740  70.068  0.00  0.00    +0.000 C 
ATOM      8  C   UNL     1      61.899  63.858  70.650  0.00  0.00    +0.000 C 
ATOM      9  C   UNL     1      61.979  64.403  71.264  0.00  0.00    +0.000 C 
ATOM     10  C   UNL     1      62.572  64.976  71.233  0.00  0.00    +0.000 C 
ATOM     11  C   UNL     1      63.175  65.161  70.674  0.00  0.00    +0.000 C 
ATOM     12  C   UNL     1      63.659  65.829  70.914  0.00  0.00    +0.000 C 
ATOM     13  O   UNL     1      64.171  65.817  70.217  0.00  0.00    +0.000 OA
ATOM     14  C   UNL     1      64.762  66.698  70.594  0.00  0.00    +0.000 C 
ATOM     15  O   UNL     1      64.563  67.043  71.317  0.00  0.00    +0.000 OA
ATOM     16  C   UNL     1      64.502  66.819  71.101  0.00  0.00    +0.000 C 
ATOM     17  C   UNL     1      64.256  67.119  71.827  0.00  0.00    +0.000 C 
ATOM     18  O   UNL     1      64.599  67.759  72.218  0.00  0.00    +0.000 OA
ATOM     19  C   UNL     1      63.621  66.686  72.099  0.00  0.00    +0.000 C 
ATOM     20  O   UNL     1      63.285  66.895  72.824  0.00  0.00    +0.000 OA
ATOM     21  C   UNL     1      63.293  66.039  71.679  0.00  0.00    +0.000 C 
ATOM     22  C   UNL     1      62.653  65.521  71.846  0.00  0.00    +0.000 C 
ATOM     23  O   UNL     1      62.792  66.095  72.422  0.00  0.00    +0.000 OA
ATOM     24  C   UNL     1      62.140  65.493  72.493  0.00  0.00    +0.000 C 
ATOM     25  O   UNL     1      62.221  66.038  73.107  0.00  0.00    +0.000 OA
ATOM     26  C   UNL     1      61.548  64.920  72.524  0.00  0.00    +0.000 C 
ATOM     27  O   UNL     1      61.035  64.893  73.170  0.00  0.00    +0.000 OA
ATOM     28  C   UNL     1      61.467  64.376  71.911  0.00  0.00    +0.000 C 
ATOM     29  C   UNL     1      60.874  63.803  71.942  0.00  0.00    +0.000 C 
ATOM     30  C   UNL     1      60.604  64.081  72.670  0.00  0.00    +0.000 C 
ATOM     31  O   UNL     1      60.239  63.475  72.355  0.00  0.00    +0.000 OA
ATOM     32  C   UNL     1      64.297  66.140  70.476  0.00  0.00    +0.000 C 
ATOM     33  C   UNL     1      63.932  65.497  70.111  0.00  0.00    +0.000 C 
ATOM     34  C   UNL     1      64.663  65.921  69.699  0.00  0.00    +0.000 C 
ATOM     35  C   UNL     1      65.292  66.437  69.543  0.00  0.00    +0.000 C 
ATOM     36  C   UNL     1      65.423  67.018  70.138  0.00  0.00    +0.000 C 
ATOM     37  O   UNL     1      65.959  67.636  70.242  0.00  0.00    +0.000 OA
ENDROOT
TORSDOF 0
ENDMDL
MODEL 2
REMARK VINA RESULT:   -16.241      3.746      5.993
REMARK INTER + INTRA:         -16.241
REMARK INTER:                 -16.241
REMARK INTRA:                   0.000
REMARK UNBOUND:                 0.000
ROOT
REMARK  Name = protoverine
REMARK                            x       y       z     vdW  Elec       q    Type
REMARK                         _______ _______ _______ _____ _____    ______ ____
ATOM      1  C   UNL     1      64.479  65.104  70.186  0.00  0.00    +0.000 C 
ATOM      2  C   UNL     1      63.693  64.877  70.080  0.00  0.00    +0.000 C 
ATOM      3  C   UNL     1      63.133  65.046  70.662  0.00  0.00    +0.000 C 
ATOM      4  C   UNL     1      62.347  64.820  70.557  0.00  0.00    +0.000 C 
ATOM      5  C   UNL     1      62.120  64.425  69.869  0.00  0.00    +0.000 C 
ATOM      6  N   UNL     1      62.679  64.256  69.287  0.00  0.00    +0.000 NA
ATOM      7  C   UNL     1      63.466  64.482  69.392  0.00  0.00    +0.000 C 
ATOM      8  C   UNL     1      62.453  63.860  68.599  0.00  0.00    +0.000 C 
ATOM      9  C   UNL     1      61.666  63.634  68.494  0.00  0.00    +0.000 C 
ATOM     10  C   UNL     1      61.439  63.239  67.806  0.00  0.00    +0.000 C 
ATOM     11  C   UNL     1      61.851  62.984  67.117  0.00  0.00    +0.000 C 
ATOM     12  C   UNL     1      61.340  62.587  66.551  0.00  0.00    +0.000 C 
ATOM     13  O   UNL     1      61.963  62.433  65.971  0.00  0.00    +0.000 OA
ATOM     14  C   UNL     1      61.237  61.925  65.276  0.00  0.00    +0.000 C 
ATOM     15  O   UNL     1      60.443  61.859  65.494  0.00  0.00    +0.000 OA
ATOM     16  C   UNL     1      60.734  61.961  65.569  0.00  0.00    +0.000 C 
ATOM     17  C   UNL     1      59.958  61.926  65.840  0.00  0.00    +0.000 C 
ATOM     18  O   UNL     1      59.327  61.583  65.435  0.00  0.00    +0.000 OA
ATOM     19  C   UNL     1      59.910  62.283  66.572  0.00  0.00    +0.000 C 
ATOM     20  O   UNL     1      59.176  62.310  66.948  0.00  0.00    +0.000 OA
ATOM     21  C   UNL     1      60.570  62.623  66.961  0.00  0.00    +0.000 C 
ATOM     22  C   UNL     1      60.653  63.013  67.700  0.00  0.00    +0.000 C 
ATOM     23  O   UNL     1      59.887  62.758  67.529  0.00  0.00    +0.000 OA
ATOM     24  C   UNL     1      60.093  63.182  68.283  0.00  0.00    +0.000 C 
ATOM     25  O   UNL     1      59.306  62.955  68.178  0.00  0.00    +0.000 OA
ATOM     26  C   UNL     1      60.320  63.577  68.971  0.00  0.00    +0.000 C 
ATOM     27  O   UNL     1      59.761  63.746  69.553  0.00  0.00    +0.000 OA
ATOM     28  C   UNL     1      61.106  63.803  69.076  0.00  0.00    +0.000 C 
ATOM     29  C   UNL     1      61.333  64.198  69.764  0.00  0.00    +0.000 C 
ATOM     30  C   UNL     1      60.565  64.179  70.063  0.00  0.00    +0.000 C 
ATOM     31  O   UNL     1      61.114  64.516  70.493  0.00  0.00    +0.000 OA
ATOM     32  C   UNL     1      61.590  62.275  65.819  0.00  0.00    +0.000 C 
ATOM     33  C   UNL     1      62.199  62.626  66.250  0.00  0.00    +0.000 C 
ATOM     34  C   UNL     1      62.375  62.243  65.409  0.00  0.00    +0.000 C 
ATOM     35  C   UNL     1      62.284  61.857  64.681  0.00  0.00    +0.000 C 
ATOM     36  C   UNL     1      61.498  61.602  64.519  0.00  0.00    +0.000 C 
ATOM     37  O   UNL     1      61.131  61.208  63.894  0.00  0.00    +0.000 OA
ENDROOT
TORSDOF 0
ENDMDL
MODEL 3
REMARK VINA RESULT:   -15.937      3.559      4.295
REMARK INTER + INTRA:         -15.937
REMARK INTER:                 -15.937
REMARK INTRA:                   0.000
REMARK UNBOUND:                 0.000
ROOT
REMARK  Name = protoverine
REMARK                            x       y       z     vdW  Elec       q    Type
REMARK                         _______ _______ _______ _____ _____    ______ ____
ATOM      1  C   UNL     1      61.413  62.889  65.860  0.00  0.00    +0.000 C 
ATOM      2  C   UNL     1      61.228  62.712  66.644  0.00  0.00    +0.000 C 
ATOM      3  C   UNL     1      61.275  61.933  66.912  0.00  0.00    +0.000 C 
ATOM      4  C   UNL     1      61.090  61.754  67.696  0.00  0.00    +0.000 C 
ATOM      5  C   UNL     1      60.859  62.355  68.212  0.00  0.00    +0.000 C 
ATOM      6  N   UNL     1      60.812  63.134  67.945  0.00  0.00    +0.000 NA
ATOM      7  C   UNL     1      60.997  63.312  67.160  0.00  0.00    +0.000 C 
ATOM      8  C   UNL     1      60.581  63.735  68.460  0.00  0.00    +0.000 C 
ATOM      9  C   UNL     1      60.396  63.556  69.244  0.00  0.00    +0.000 C 
ATOM     10  C   UNL     1      60.165  64.156  69.761  0.00  0.00    +0.000 C 
ATOM     11  C   UNL     1      60.060  64.988  69.678  0.00  0.00    +0.000 C 
ATOM     12  C   UNL     1      59.805  65.366  70.407  0.00  0.00    +0.000 C 
ATOM     13  O   UNL     1      59.772  66.166  70.079  0.00  0.00    +0.000 OA
ATOM     14  C   UNL     1      59.439  66.593  71.066  0.00  0.00    +0.000 C 
ATOM     15  O   UNL     1      59.340  66.092  71.715  0.00  0.00    +0.000 OA
ATOM     16  C   UNL     1      59.419  66.123  71.409  0.00  0.00    +0.000 C 
ATOM     17  C   UNL     1      59.338  65.574  72.017  0.00  0.00    +0.000 C 
ATOM     18  O   UNL     1      59.103  65.749  72.787  0.00  0.00    +0.000 OA
ATOM     19  C   UNL     1      59.526  64.831  71.739  0.00  0.00    +0.000 C 
ATOM     20  O   UNL     1      59.482  64.193  72.262  0.00  0.00    +0.000 OA
ATOM     21  C   UNL     1      59.763  64.682  70.948  0.00  0.00    +0.000 C 
ATOM     22  C   UNL     1      59.980  63.979  70.545  0.00  0.00    +0.000 C 
ATOM     23  O   UNL     1      59.781  63.874  71.338  0.00  0.00    +0.000 OA
ATOM     24  C   UNL     1      60.026  63.199  70.812  0.00  0.00    +0.000 C 
ATOM     25  O   UNL     1      59.841  63.021  71.597  0.00  0.00    +0.000 OA
ATOM     26  C   UNL     1      60.258  62.599  70.296  0.00  0.00    +0.000 C 
ATOM     27  O   UNL     1      60.304  61.820  70.564  0.00  0.00    +0.000 OA
ATOM     28  C   UNL     1      60.442  62.777  69.513  0.00  0.00    +0.000 C 
ATOM     29  C   UNL     1      60.674  62.177  68.997  0.00  0.00    +0.000 C 
ATOM     30  C   UNL     1      60.602  61.603  69.585  0.00  0.00    +0.000 C 
ATOM     31  O   UNL     1      60.827  61.374  68.881  0.00  0.00    +0.000 OA
ATOM     32  C   UNL     1      59.656  66.183  70.496  0.00  0.00    +0.000 C 
ATOM     33  C   UNL     1      59.894  65.974  69.734  0.00  0.00    +0.000 C 
ATOM     34  C   UNL     1      59.702  66.871  69.940  0.00  0.00    +0.000 C 
ATOM     35  C   UNL     1      59.487  67.560  70.346  0.00  0.00    +0.000 C 
ATOM     36  C   UNL     1      59.286  67.439  71.155  0.00  0.00    +0.000 C 
ATOM     37  O   UNL     1      59.044  67.926  71.775  0.00  0.00    +0.000 OA
ENDROOT
TORSDOF 0
ENDMDL
MODEL 4
REMARK VINA RESULT:   -15.841      3.283      4.887
REMARK INTER + INTRA:         -15.841
REMARK INTER:                 -15.841
REMARK INTRA:                   0.000
REMARK UNBOUND:                 0.000
ROOT
REMARK  Name = protoverine
REMARK                            x       y       z     vdW  Elec       q    Type
REMARK                         _______ _______ _______ _____ _____    ______ ____
ATOM      1  C   UNL     1      62.784  61.827  63.952  0.00  0.00    +0.000 C 
ATOM      2  C   UNL     1      62.172  61.916  64.497  0.00  0.00    +0.000 C 
ATOM      3  C   UNL     1      61.419  61.628  64.323  0.00  0.00    +0.000 C 
ATOM      4  C   UNL     1      60.807  61.717  64.868  0.00  0.00    +0.000 C 
ATOM      5  C   UNL     1      60.947  62.094  65.588  0.00  0.00    +0.000 C 
ATOM      6  N   UNL     1      61.699  62.383  65.763  0.00  0.00    +0.000 NA
ATOM      7  C   UNL     1      62.312  62.294  65.217  0.00  0.00    +0.000 C 
ATOM      8  C   UNL     1      61.840  62.760  66.483  0.00  0.00    +0.000 C 
ATOM      9  C   UNL     1      61.227  62.849  67.028  0.00  0.00    +0.000 C 
ATOM     10  C   UNL     1      61.367  63.226  67.748  0.00  0.00    +0.000 C 
ATOM     11  C   UNL     1      62.047  63.578  68.100  0.00  0.00    +0.000 C 
ATOM     12  C   UNL     1      61.889  63.902  68.880  0.00  0.00    +0.000 C 
ATOM     13  O   UNL     1      62.694  64.187  69.017  0.00  0.00    +0.000 OA
ATOM     14  C   UNL     1      62.416  64.589  70.031  0.00  0.00    +0.000 C 
ATOM     15  O   UNL     1      61.642  64.505  70.304  0.00  0.00    +0.000 OA
ATOM     16  C   UNL     1      61.851  64.453  70.072  0.00  0.00    +0.000 C 
ATOM     17  C   UNL     1      61.065  64.339  70.288  0.00  0.00    +0.000 C 
ATOM     18  O   UNL     1      60.728  64.582  71.001  0.00  0.00    +0.000 OA
ATOM     19  C   UNL     1      60.672  63.950  69.690  0.00  0.00    +0.000 C 
ATOM     20  O   UNL     1      59.871  63.779  69.792  0.00  0.00    +0.000 OA
ATOM     21  C   UNL     1      61.041  63.714  68.975  0.00  0.00    +0.000 C 
ATOM     22  C   UNL     1      60.754  63.315  68.294  0.00  0.00    +0.000 C 
ATOM     23  O   UNL     1      60.191  63.439  68.884  0.00  0.00    +0.000 OA
ATOM     24  C   UNL     1      60.001  63.026  68.118  0.00  0.00    +0.000 C 
ATOM     25  O   UNL     1      59.388  63.115  68.664  0.00  0.00    +0.000 OA
ATOM     26  C   UNL     1      59.861  62.649  67.398  0.00  0.00    +0.000 C 
ATOM     27  O   UNL     1      59.108  62.361  67.224  0.00  0.00    +0.000 OA
ATOM     28  C   UNL     1      60.474  62.560  66.854  0.00  0.00    +0.000 C 
ATOM     29  C   UNL     1      60.334  62.183  66.134  0.00  0.00    +0.000 C 
ATOM     30  C   UNL     1      59.541  62.054  66.322  0.00  0.00    +0.000 C 
ATOM     31  O   UNL     1      59.797  61.802  65.636  0.00  0.00    +0.000 OA
ATOM     32  C   UNL     1      62.453  64.284  69.362  0.00  0.00    +0.000 C 
ATOM     33  C   UNL     1      62.759  64.028  68.640  0.00  0.00    +0.000 C 
ATOM     34  C   UNL     1      63.313  64.471  69.259  0.00  0.00    +0.000 C 
ATOM     35  C   UNL     1      63.586  64.864  69.934  0.00  0.00    +0.000 C 
ATOM     36  C   UNL     1      63.002  64.983  70.529  0.00  0.00    +0.000 C 
ATOM     37  O   UNL     1      62.993  65.333  71.276  0.00  0.00    +0.000 OA
ENDROOT
TORSDOF 0
ENDMDL
MODEL 5
REMARK VINA RESULT:   -15.832      1.529      4.589
REMARK INTER + INTRA:         -15.832
REMARK INTER:                 -15.832
REMARK INTRA:                   0.000
REMARK UNBOUND:                 0.000
ROOT
REMARK  Name = protoverine
REMARK                            x       y       z     vdW  Elec       q    Type
REMARK                         _______ _______ _______ _____ _____    ______ ____
ATOM      1  C   UNL     1      66.125  67.476  69.835  0.00  0.00    +0.000 C 
ATOM      2  C   UNL     1      65.525  67.223  70.342  0.00  0.00    +0.000 C 
ATOM      3  C   UNL     1      65.476  67.527  71.107  0.00  0.00    +0.000 C 
ATOM      4  C   UNL     1      64.876  67.274  71.613  0.00  0.00    +0.000 C 
ATOM      5  C   UNL     1      64.326  66.717  71.355  0.00  0.00    +0.000 C 
ATOM      6  N   UNL     1      64.374  66.412  70.590  0.00  0.00    +0.000 NA
ATOM      7  C   UNL     1      64.975  66.665  70.083  0.00  0.00    +0.000 C 
ATOM      8  C   UNL     1      63.824  65.855  70.331  0.00  0.00    +0.000 C 
ATOM      9  C   UNL     1      63.224  65.602  70.839  0.00  0.00    +0.000 C 
ATOM     10  C   UNL     1      62.673  65.045  70.580  0.00  0.00    +0.000 C 
ATOM     11  C   UNL     1      62.560  64.629  69.857  0.00  0.00    +0.000 C 
ATOM     12  C   UNL     1      61.885  64.098  69.879  0.00  0.00    +0.000 C 
ATOM     13  O   UNL     1      61.978  63.809  69.069  0.00  0.00    +0.000 OA
ATOM     14  C   UNL     1      61.082  63.135  69.170  0.00  0.00    +0.000 C 
ATOM     15  O   UNL     1      60.662  63.119  69.880  0.00  0.00    +0.000 OA
ATOM     16  C   UNL     1      60.905  63.239  69.715  0.00  0.00    +0.000 C 
ATOM     17  C   UNL     1      60.529  63.266  70.446  0.00  0.00    +0.000 C 
ATOM     18  O   UNL     1      59.863  62.827  70.656  0.00  0.00    +0.000 OA
ATOM     19  C   UNL     1      60.916  63.795  70.932  0.00  0.00    +0.000 C 
ATOM     20  O   UNL     1      60.629  63.908  71.697  0.00  0.00    +0.000 OA
ATOM     21  C   UNL     1      61.592  64.228  70.692  0.00  0.00    +0.000 C 
ATOM     22  C   UNL     1      62.074  64.792  71.087  0.00  0.00    +0.000 C 
ATOM     23  O   UNL     1      61.450  64.494  71.537  0.00  0.00    +0.000 OA
ATOM     24  C   UNL     1      62.025  65.097  71.852  0.00  0.00    +0.000 C 
ATOM     25  O   UNL     1      61.424  64.843  72.359  0.00  0.00    +0.000 OA
ATOM     26  C   UNL     1      62.575  65.654  72.110  0.00  0.00    +0.000 C 
ATOM     27  O   UNL     1      62.526  65.958  72.876  0.00  0.00    +0.000 OA
ATOM     28  C   UNL     1      63.175  65.906  71.604  0.00  0.00    +0.000 C 
ATOM     29  C   UNL     1      63.725  66.464  71.862  0.00  0.00    +0.000 C 
ATOM     30  C   UNL     1      63.370  66.513  72.605  0.00  0.00    +0.000 C 
ATOM     31  O   UNL     1      63.994  66.952  72.470  0.00  0.00    +0.000 OA
ATOM     32  C   UNL     1      61.635  63.614  69.247  0.00  0.00    +0.000 C 
ATOM     33  C   UNL     1      62.301  64.067  69.069  0.00  0.00    +0.000 C 
ATOM     34  C   UNL     1      61.939  63.487  68.424  0.00  0.00    +0.000 C 
ATOM     35  C   UNL     1      61.458  62.931  68.042  0.00  0.00    +0.000 C 
ATOM     36  C   UNL     1      60.826  62.635  68.513  0.00  0.00    +0.000 C 
ATOM     37  O   UNL     1      60.215  62.093  68.396  0.00  0.00    +0.000 OA
ENDROOT
TORSDOF 0
ENDMDL
MODEL 6
REMARK VINA RESULT:   -15.765      1.827      3.048
REMARK INTER + INTRA:         -15.765
REMARK INTER:                 -15.765
REMARK INTRA:                   0.000
REMARK UNBOUND:                 0.000
ROOT
REMARK  Name = protoverine
REMARK                            x       y       z     vdW  Elec       q    Type
REMARK                         _______ _______ _______ _____ _____    ______ ____
ATOM      1  C   UNL     1      61.654  62.723  65.429  0.00  0.00    +0.000 C 
ATOM      2  C   UNL     1      61.409  62.616  66.209  0.00  0.00    +0.000 C 
ATOM      3  C   UNL     1      60.849  62.038  66.390  0.00  0.00    +0.000 C 
ATOM      4  C   UNL     1      60.603  61.931  67.169  0.00  0.00    +0.000 C 
ATOM      5  C   UNL     1      60.918  62.401  67.769  0.00  0.00    +0.000 C 
ATOM      6  N   UNL     1      61.479  62.979  67.590  0.00  0.00    +0.000 NA
ATOM      7  C   UNL     1      61.724  63.086  66.809  0.00  0.00    +0.000 C 
ATOM      8  C   UNL     1      61.794  63.450  68.190  0.00  0.00    +0.000 C 
ATOM      9  C   UNL     1      61.548  63.342  68.970  0.00  0.00    +0.000 C 
ATOM     10  C   UNL     1      61.863  63.812  69.570  0.00  0.00    +0.000 C 
ATOM     11  C   UNL     1      62.429  64.436  69.586  0.00  0.00    +0.000 C 
ATOM     12  C   UNL     1      62.562  64.746  70.376  0.00  0.00    +0.000 C 
ATOM     13  O   UNL     1      63.145  65.337  70.137  0.00  0.00    +0.000 OA
ATOM     14  C   UNL     1      63.269  65.694  71.198  0.00  0.00    +0.000 C 
ATOM     15  O   UNL     1      62.832  65.338  71.801  0.00  0.00    +0.000 OA
ATOM     16  C   UNL     1      62.901  65.350  71.492  0.00  0.00    +0.000 C 
ATOM     17  C   UNL     1      62.438  64.958  72.048  0.00  0.00    +0.000 C 
ATOM     18  O   UNL     1      62.430  65.116  72.857  0.00  0.00    +0.000 OA
ATOM     19  C   UNL     1      61.990  64.388  71.674  0.00  0.00    +0.000 C 
ATOM     20  O   UNL     1      61.482  63.926  72.132  0.00  0.00    +0.000 OA
ATOM     21  C   UNL     1      62.020  64.249  70.848  0.00  0.00    +0.000 C 
ATOM     22  C   UNL     1      61.618  63.705  70.350  0.00  0.00    +0.000 C 
ATOM     23  O   UNL     1      61.420  63.653  71.149  0.00  0.00    +0.000 OA
ATOM     24  C   UNL     1      61.057  63.127  70.530  0.00  0.00    +0.000 C 
ATOM     25  O   UNL     1      60.811  63.019  71.311  0.00  0.00    +0.000 OA
ATOM     26  C   UNL     1      60.742  62.656  69.930  0.00  0.00    +0.000 C 
ATOM     27  O   UNL     1      60.182  62.079  70.111  0.00  0.00    +0.000 OA
ATOM     28  C   UNL     1      60.988  62.764  69.150  0.00  0.00    +0.000 C 
ATOM     29  C   UNL     1      60.673  62.294  68.550  0.00  0.00    +0.000 C 
ATOM     30  C   UNL     1      60.196  61.882  69.083  0.00  0.00    +0.000 C 
ATOM     31  O   UNL     1      60.159  61.685  68.335  0.00  0.00    +0.000 OA
ATOM     32  C   UNL     1      63.089  65.364  70.565  0.00  0.00    +0.000 C 
ATOM     33  C   UNL     1      63.074  65.181  69.761  0.00  0.00    +0.000 C 
ATOM     34  C   UNL     1      63.636  65.864  70.080  0.00  0.00    +0.000 C 
ATOM     35  C   UNL     1      64.028  66.397  70.579  0.00  0.00    +0.000 C 
ATOM     36  C   UNL     1      63.816  66.334  71.391  0.00  0.00    +0.000 C 
ATOM     37  O   UNL     1      64.039  66.723  72.083  0.00  0.00    +0.000 OA
ENDROOT
TORSDOF 0
ENDMDL
MODEL 7
REMARK VINA RESULT:   -15.648      2.453      5.123
REMARK INTER + INTRA:         -15.648
REMARK INTER:                 -15.648
REMARK INTRA:                   0.000
REMARK UNBOUND:                 0.000
ROOT
REMARK  Name = protoverine
REMARK                            x       y       z     vdW  Elec       q    Type
REMARK                         _______ _______ _______ _____ _____    ______ ____
ATOM      1  C   UNL     1      65.097  66.832  69.836  0.00  0.00    +0.000 C 
ATOM      2  C   UNL     1      64.524  66.330  70.152  0.00  0.00    +0.000 C 
ATOM      3  C   UNL     1      64.391  66.316  70.966  0.00  0.00    +0.000 C 
ATOM      4  C   UNL     1      63.819  65.814  71.282  0.00  0.00    +0.000 C 
ATOM      5  C   UNL     1      63.379  65.325  70.785  0.00  0.00    +0.000 C 
ATOM      6  N   UNL     1      63.511  65.338  69.971  0.00  0.00    +0.000 NA
ATOM      7  C   UNL     1      64.084  65.841  69.654  0.00  0.00    +0.000 C 
ATOM      8  C   UNL     1      63.071  64.849  69.473  0.00  0.00    +0.000 C 
ATOM      9  C   UNL     1      62.498  64.347  69.790  0.00  0.00    +0.000 C 
ATOM     10  C   UNL     1      62.058  63.858  69.292  0.00  0.00    +0.000 C 
ATOM     11  C   UNL     1      62.047  63.732  68.459  0.00  0.00    +0.000 C 
ATOM     12  C   UNL     1      61.466  63.145  68.218  0.00  0.00    +0.000 C 
ATOM     13  O   UNL     1      61.642  63.196  67.373  0.00  0.00    +0.000 OA
ATOM     14  C   UNL     1      60.864  62.420  67.130  0.00  0.00    +0.000 C 
ATOM     15  O   UNL     1      60.421  62.082  67.739  0.00  0.00    +0.000 OA
ATOM     16  C   UNL     1      60.648  62.287  67.655  0.00  0.00    +0.000 C 
ATOM     17  C   UNL     1      60.240  61.987  68.303  0.00  0.00    +0.000 C 
ATOM     18  O   UNL     1      59.646  61.416  68.270  0.00  0.00    +0.000 OA
ATOM     19  C   UNL     1      60.514  62.343  68.984  0.00  0.00    +0.000 C 
ATOM     20  O   UNL     1      60.178  62.122  69.705  0.00  0.00    +0.000 OA
ATOM     21  C   UNL     1      61.120  62.922  68.988  0.00  0.00    +0.000 C 
ATOM     22  C   UNL     1      61.485  63.355  69.608  0.00  0.00    +0.000 C 
ATOM     23  O   UNL     1      60.899  62.830  69.853  0.00  0.00    +0.000 OA
ATOM     24  C   UNL     1      61.353  63.342  70.422  0.00  0.00    +0.000 C 
ATOM     25  O   UNL     1      60.780  62.839  70.739  0.00  0.00    +0.000 OA
ATOM     26  C   UNL     1      61.793  63.831  70.920  0.00  0.00    +0.000 C 
ATOM     27  O   UNL     1      61.660  63.817  71.734  0.00  0.00    +0.000 OA
ATOM     28  C   UNL     1      62.365  64.333  70.604  0.00  0.00    +0.000 C 
ATOM     29  C   UNL     1      62.806  64.822  71.101  0.00  0.00    +0.000 C 
ATOM     30  C   UNL     1      62.414  64.541  71.771  0.00  0.00    +0.000 C 
ATOM     31  O   UNL     1      62.963  65.079  71.869  0.00  0.00    +0.000 OA
ATOM     32  C   UNL     1      61.328  62.904  67.432  0.00  0.00    +0.000 C 
ATOM     33  C   UNL     1      61.918  63.476  67.500  0.00  0.00    +0.000 C 
ATOM     34  C   UNL     1      61.684  63.137  66.654  0.00  0.00    +0.000 C 
ATOM     35  C   UNL     1      61.319  62.704  66.050  0.00  0.00    +0.000 C 
ATOM     36  C   UNL     1      60.722  62.172  66.314  0.00  0.00    +0.000 C 
ATOM     37  O   UNL     1      60.214  61.636  65.947  0.00  0.00    +0.000 OA
ENDROOT
TORSDOF 0
ENDMDL
MODEL 8
REMARK VINA RESULT:   -14.932      1.776      4.901
REMARK INTER + INTRA:         -14.932
REMARK INTER:                 -14.932
REMARK INTRA:                   0.000
REMARK UNBOUND:                 0.000
ROOT
REMARK  Name = protoverine
REMARK                            x       y       z     vdW  Elec       q    Type
REMARK                         _______ _______ _______ _____ _____    ______ ____
ATOM      1  C   UNL     1      65.577  67.684  71.329  0.00  0.00    +0.000 C 
ATOM      2  C   UNL     1      65.138  67.009  71.148  0.00  0.00    +0.000 C 
ATOM      3  C   UNL     1      65.484  66.395  70.720  0.00  0.00    +0.000 C 
ATOM      4  C   UNL     1      65.046  65.720  70.539  0.00  0.00    +0.000 C 
ATOM      5  C   UNL     1      64.262  65.659  70.786  0.00  0.00    +0.000 C 
ATOM      6  N   UNL     1      63.915  66.273  71.213  0.00  0.00    +0.000 NA
ATOM      7  C   UNL     1      64.353  66.949  71.395  0.00  0.00    +0.000 C 
ATOM      8  C   UNL     1      63.130  66.213  71.460  0.00  0.00    +0.000 C 
ATOM      9  C   UNL     1      62.692  65.538  71.279  0.00  0.00    +0.000 C 
ATOM     10  C   UNL     1      61.907  65.477  71.526  0.00  0.00    +0.000 C 
ATOM     11  C   UNL     1      61.391  65.983  71.959  0.00  0.00    +0.000 C 
ATOM     12  C   UNL     1      60.608  65.646  72.068  0.00  0.00    +0.000 C 
ATOM     13  O   UNL     1      60.290  66.316  72.513  0.00  0.00    +0.000 OA
ATOM     14  C   UNL     1      59.287  65.815  72.618  0.00  0.00    +0.000 C 
ATOM     15  O   UNL     1      59.169  65.067  72.288  0.00  0.00    +0.000 OA
ATOM     16  C   UNL     1      59.367  65.310  72.338  0.00  0.00    +0.000 C 
ATOM     17  C   UNL     1      59.311  64.567  71.989  0.00  0.00    +0.000 C 
ATOM     18  O   UNL     1      58.638  64.091  71.989  0.00  0.00    +0.000 OA
ATOM     19  C   UNL     1      60.023  64.375  71.642  0.00  0.00    +0.000 C 
ATOM     20  O   UNL     1      60.090  63.648  71.257  0.00  0.00    +0.000 OA
ATOM     21  C   UNL     1      60.693  64.880  71.657  0.00  0.00    +0.000 C 
ATOM     22  C   UNL     1      61.468  64.803  71.345  0.00  0.00    +0.000 C 
ATOM     23  O   UNL     1      60.972  64.160  71.200  0.00  0.00    +0.000 OA
ATOM     24  C   UNL     1      61.815  64.188  70.917  0.00  0.00    +0.000 C 
ATOM     25  O   UNL     1      61.376  63.513  70.735  0.00  0.00    +0.000 OA
ATOM     26  C   UNL     1      62.600  64.249  70.670  0.00  0.00    +0.000 C 
ATOM     27  O   UNL     1      62.946  63.634  70.242  0.00  0.00    +0.000 OA
ATOM     28  C   UNL     1      63.038  64.923  70.851  0.00  0.00    +0.000 C 
ATOM     29  C   UNL     1      63.823  64.984  70.604  0.00  0.00    +0.000 C 
ATOM     30  C   UNL     1      63.798  64.242  70.244  0.00  0.00    +0.000 C 
ATOM     31  O   UNL     1      64.460  64.641  70.209  0.00  0.00    +0.000 OA
ATOM     32  C   UNL     1      59.980  66.017  72.474  0.00  0.00    +0.000 C 
ATOM     33  C   UNL     1      60.670  66.468  72.455  0.00  0.00    +0.000 C 
ATOM     34  C   UNL     1      59.902  66.796  72.889  0.00  0.00    +0.000 C 
ATOM     35  C   UNL     1      59.135  66.863  73.193  0.00  0.00    +0.000 C 
ATOM     36  C   UNL     1      58.639  66.201  73.038  0.00  0.00    +0.000 C 
ATOM     37  O   UNL     1      57.858  66.003  73.216  0.00  0.00    +0.000 OA
ENDROOT
TORSDOF 0
ENDMDL
MODEL 9
REMARK VINA RESULT:   -14.680      2.949      5.346
REMARK INTER + INTRA:         -14.680
REMARK INTER:                 -14.680
REMARK INTRA:                   0.000
REMARK UNBOUND:                 0.000
ROOT
REMARK  Name = protoverine
REMARK                            x       y       z     vdW  Elec       q    Type
REMARK                         _______ _______ _______ _____ _____    ______ ____
ATOM      1  C   UNL     1      58.687  64.778  72.605  0.00  0.00    +0.000 C 
ATOM      2  C   UNL     1      59.383  64.749  72.164  0.00  0.00    +0.000 C 
ATOM      3  C   UNL     1      60.081  65.063  72.473  0.00  0.00    +0.000 C 
ATOM      4  C   UNL     1      60.777  65.035  72.033  0.00  0.00    +0.000 C 
ATOM      5  C   UNL     1      60.777  64.693  71.282  0.00  0.00    +0.000 C 
ATOM      6  N   UNL     1      60.080  64.378  70.972  0.00  0.00    +0.000 NA
ATOM      7  C   UNL     1      59.383  64.407  71.414  0.00  0.00    +0.000 C 
ATOM      8  C   UNL     1      60.079  64.035  70.222  0.00  0.00    +0.000 C 
ATOM      9  C   UNL     1      60.776  64.007  69.781  0.00  0.00    +0.000 C 
ATOM     10  C   UNL     1      60.776  63.665  69.031  0.00  0.00    +0.000 C 
ATOM     11  C   UNL     1      60.183  63.301  68.556  0.00  0.00    +0.000 C 
ATOM     12  C   UNL     1      60.483  63.029  67.798  0.00  0.00    +0.000 C 
ATOM     13  O   UNL     1      59.728  62.714  67.518  0.00  0.00    +0.000 OA
ATOM     14  C   UNL     1      60.188  62.384  66.545  0.00  0.00    +0.000 C 
ATOM     15  O   UNL     1      60.990  62.520  66.406  0.00  0.00    +0.000 OA
ATOM     16  C   UNL     1      60.744  62.549  66.604  0.00  0.00    +0.000 C 
ATOM     17  C   UNL     1      61.546  62.712  66.525  0.00  0.00    +0.000 C 
ATOM     18  O   UNL     1      62.007  62.526  65.867  0.00  0.00    +0.000 OA
ATOM     19  C   UNL     1      61.815  63.086  67.198  0.00  0.00    +0.000 C 
ATOM     20  O   UNL     1      62.611  63.301  67.236  0.00  0.00    +0.000 OA
ATOM     21  C   UNL     1      61.323  63.262  67.853  0.00  0.00    +0.000 C 
ATOM     22  C   UNL     1      61.472  63.636  68.590  0.00  0.00    +0.000 C 
ATOM     23  O   UNL     1      62.129  63.573  68.095  0.00  0.00    +0.000 OA
ATOM     24  C   UNL     1      62.170  63.951  68.900  0.00  0.00    +0.000 C 
ATOM     25  O   UNL     1      62.867  63.922  68.458  0.00  0.00    +0.000 OA
ATOM     26  C   UNL     1      62.170  64.293  69.650  0.00  0.00    +0.000 C 
ATOM     27  O   UNL     1      62.867  64.608  69.959  0.00  0.00    +0.000 OA
ATOM     28  C   UNL     1      61.474  64.322  70.090  0.00  0.00    +0.000 C 
ATOM     29  C   UNL     1      61.474  64.664  70.841  0.00  0.00    +0.000 C 
ATOM     30  C   UNL     1      62.278  64.841  70.792  0.00  0.00    +0.000 C 
ATOM     31  O   UNL     1      61.901  65.042  71.437  0.00  0.00    +0.000 OA
ATOM     32  C   UNL     1      60.027  62.648  67.212  0.00  0.00    +0.000 C 
ATOM     33  C   UNL     1      59.594  62.848  67.885  0.00  0.00    +0.000 C 
ATOM     34  C   UNL     1      59.173  62.414  67.164  0.00  0.00    +0.000 C 
ATOM     35  C   UNL     1      59.035  62.047  66.435  0.00  0.00    +0.000 C 
ATOM     36  C   UNL     1      59.714  61.989  65.939  0.00  0.00    +0.000 C 
ATOM     37  O   UNL     1      59.863  61.683  65.188  0.00  0.00    +0.000 OA
ENDROOT
TORSDOF 0
ENDMDL
