MODEL 1
REMARK VINA RESULT:    -4.816      0.000      0.000
REMARK INTER + INTRA:          -4.816
REMARK INTER:                  -4.816
REMARK INTRA:                   0.000
REMARK UNBOUND:                 0.000
ROOT
REMARK  Name = pyrazinamide
REMARK                            x       y       z     vdW  Elec       q    Type
REMARK                         _______ _______ _______ _____ _____    ______ ____
ATOM      1  N   UNL     1      62.387  61.725  63.815  0.00  0.00    +0.000 NA
ATOM      2  C   UNL     1      61.662  61.593  64.186  0.00  0.00    +0.000 C 
ATOM      3  O   UNL     1      61.072  61.167  63.798  0.00  0.00    +0.000 OA
ATOM      4  C   UNL     1      61.527  61.887  64.944  0.00  0.00    +0.000 A 
ATOM      5  N   UNL     1      60.802  61.756  65.315  0.00  0.00    +0.000 NA
ATOM      6  C   UNL     1      60.667  62.050  66.074  0.00  0.00    +0.000 A 
ATOM      7  C   UNL     1      61.257  62.477  66.461  0.00  0.00    +0.000 A 
ATOM      8  N   UNL     1      61.982  62.609  66.091  0.00  0.00    +0.000 NA
ATOM      9  C   UNL     1      62.117  62.314  65.333  0.00  0.00    +0.000 A 
ENDROOT
TORSDOF 0
ENDMDL
MODEL 2
REMARK VINA RESULT:    -4.777      1.438      2.405
REMARK INTER + INTRA:          -4.777
REMARK INTER:                  -4.777
REMARK INTRA:                   0.000
REMARK UNBOUND:                 0.000
ROOT
REMARK  Name = pyrazinamide
REMARK                            x       y       z     vdW  Elec       q    Type
REMARK                         _______ _______ _______ _____ _____    ______ ____
ATOM      1  N   UNL     1      60.515  62.194  66.760  0.00  0.00    +0.000 NA
ATOM      2  C   UNL     1      61.240  62.431  66.442  0.00  0.00    +0.000 C 
ATOM      3  O   UNL     1      61.738  62.924  66.878  0.00  0.00    +0.000 OA
ATOM      4  C   UNL     1      61.464  62.177  65.692  0.00  0.00    +0.000 A 
ATOM      5  N   UNL     1      62.188  62.414  65.374  0.00  0.00    +0.000 NA
ATOM      6  C   UNL     1      62.413  62.159  64.622  0.00  0.00    +0.000 A 
ATOM      7  C   UNL     1      61.914  61.667  64.188  0.00  0.00    +0.000 A 
ATOM      8  N   UNL     1      61.190  61.429  64.504  0.00  0.00    +0.000 NA
ATOM      9  C   UNL     1      60.965  61.684  65.256  0.00  0.00    +0.000 A 
ENDROOT
TORSDOF 0
ENDMDL
MODEL 3
REMARK VINA RESULT:    -4.410      1.799      2.333
REMARK INTER + INTRA:          -4.410
REMARK INTER:                  -4.410
REMARK INTRA:                   0.000
REMARK UNBOUND:                 0.000
ROOT
REMARK  Name = pyrazinamide
REMARK                            x       y       z     vdW  Elec       q    Type
REMARK                         _______ _______ _______ _____ _____    ______ ____
ATOM      1  N   UNL     1      62.072  62.437  65.816  0.00  0.00    +0.000 NA
ATOM      2  C   UNL     1      61.585  62.611  66.460  0.00  0.00    +0.000 C 
ATOM      3  O   UNL     1      61.901  62.975  67.129  0.00  0.00    +0.000 OA
ATOM      4  C   UNL     1      60.783  62.422  66.433  0.00  0.00    +0.000 A 
ATOM      5  N   UNL     1      60.296  62.595  67.076  0.00  0.00    +0.000 NA
ATOM      6  C   UNL     1      59.494  62.406  67.049  0.00  0.00    +0.000 A 
ATOM      7  C   UNL     1      59.178  62.042  66.380  0.00  0.00    +0.000 A 
ATOM      8  N   UNL     1      59.664  61.868  65.736  0.00  0.00    +0.000 NA
ATOM      9  C   UNL     1      60.467  62.058  65.763  0.00  0.00    +0.000 A 
ENDROOT
TORSDOF 0
ENDMDL
MODEL 4
REMARK VINA RESULT:    -4.249      2.139      3.031
REMARK INTER + INTRA:          -4.249
REMARK INTER:                  -4.249
REMARK INTRA:                   0.000
REMARK UNBOUND:                 0.000
ROOT
REMARK  Name = pyrazinamide
REMARK                            x       y       z     vdW  Elec       q    Type
REMARK                         _______ _______ _______ _____ _____    ______ ____
ATOM      1  N   UNL     1      60.132  63.148  68.264  0.00  0.00    +0.000 NA
ATOM      2  C   UNL     1      60.518  62.460  68.019  0.00  0.00    +0.000 C 
ATOM      3  O   UNL     1      60.507  61.789  68.498  0.00  0.00    +0.000 OA
ATOM      4  C   UNL     1      60.913  62.445  67.296  0.00  0.00    +0.000 A 
ATOM      5  N   UNL     1      61.299  61.758  67.051  0.00  0.00    +0.000 NA
ATOM      6  C   UNL     1      61.694  61.743  66.327  0.00  0.00    +0.000 A 
ATOM      7  C   UNL     1      61.705  62.414  65.849  0.00  0.00    +0.000 A 
ATOM      8  N   UNL     1      61.319  63.102  66.093  0.00  0.00    +0.000 NA
ATOM      9  C   UNL     1      60.924  63.117  66.817  0.00  0.00    +0.000 A 
ENDROOT
TORSDOF 0
ENDMDL
MODEL 5
REMARK VINA RESULT:    -4.105      6.688      7.510
REMARK INTER + INTRA:          -4.105
REMARK INTER:                  -4.105
REMARK INTRA:                   0.000
REMARK UNBOUND:                 0.000
ROOT
REMARK  Name = pyrazinamide
REMARK                            x       y       z     vdW  Elec       q    Type
REMARK                         _______ _______ _______ _____ _____    ______ ____
ATOM      1  N   UNL     1      59.934  67.228  68.962  0.00  0.00    +0.000 NA
ATOM      2  C   UNL     1      59.660  66.638  69.470  0.00  0.00    +0.000 C 
ATOM      3  O   UNL     1      59.479  65.890  69.174  0.00  0.00    +0.000 OA
ATOM      4  C   UNL     1      59.566  66.797  70.274  0.00  0.00    +0.000 A 
ATOM      5  N   UNL     1      59.292  66.208  70.782  0.00  0.00    +0.000 NA
ATOM      6  C   UNL     1      59.199  66.368  71.586  0.00  0.00    +0.000 A 
ATOM      7  C   UNL     1      59.379  67.116  71.882  0.00  0.00    +0.000 A 
ATOM      8  N   UNL     1      59.653  67.706  71.374  0.00  0.00    +0.000 NA
ATOM      9  C   UNL     1      59.747  67.546  70.570  0.00  0.00    +0.000 A 
ENDROOT
TORSDOF 0
ENDMDL
MODEL 6
REMARK VINA RESULT:    -4.022      6.961      7.811
REMARK INTER + INTRA:          -4.022
REMARK INTER:                  -4.022
REMARK INTRA:                   0.000
REMARK UNBOUND:                 0.000
ROOT
REMARK  Name = pyrazinamide
REMARK                            x       y       z     vdW  Elec       q    Type
REMARK                         _______ _______ _______ _____ _____    ______ ____
ATOM      1  N   UNL     1      64.394  64.801  70.554  0.00  0.00    +0.000 NA
ATOM      2  C   UNL     1      64.702  65.363  70.033  0.00  0.00    +0.000 C 
ATOM      3  O   UNL     1      64.642  65.247  69.219  0.00  0.00    +0.000 OA
ATOM      4  C   UNL     1      65.069  66.040  70.327  0.00  0.00    +0.000 A 
ATOM      5  N   UNL     1      65.377  66.602  69.808  0.00  0.00    +0.000 NA
ATOM      6  C   UNL     1      65.745  67.279  70.102  0.00  0.00    +0.000 A 
ATOM      7  C   UNL     1      65.805  67.394  70.916  0.00  0.00    +0.000 A 
ATOM      8  N   UNL     1      65.497  66.833  71.437  0.00  0.00    +0.000 NA
ATOM      9  C   UNL     1      65.130  66.156  71.143  0.00  0.00    +0.000 A 
ENDROOT
TORSDOF 0
ENDMDL
MODEL 7
REMARK VINA RESULT:    -4.010     16.080     16.844
REMARK INTER + INTRA:          -4.010
REMARK INTER:                  -4.010
REMARK INTRA:                   0.000
REMARK UNBOUND:                 0.000
ROOT
REMARK  Name = pyrazinamide
REMARK                            x       y       z     vdW  Elec       q    Type
REMARK                         _______ _______ _______ _____ _____    ______ ____
ATOM      1  N   UNL     1      58.613  75.132  72.369  0.00  0.00    +0.000 NA
ATOM      2  C   UNL     1      58.191  75.841  72.351  0.00  0.00    +0.000 C 
ATOM      3  O   UNL     1      57.409  75.849  72.088  0.00  0.00    +0.000 OA
ATOM      4  C   UNL     1      58.551  76.542  72.594  0.00  0.00    +0.000 A 
ATOM      5  N   UNL     1      58.129  77.250  72.576  0.00  0.00    +0.000 NA
ATOM      6  C   UNL     1      58.490  77.951  72.820  0.00  0.00    +0.000 A 
ATOM      7  C   UNL     1      59.271  77.943  73.082  0.00  0.00    +0.000 A 
ATOM      8  N   UNL     1      59.694  77.235  73.101  0.00  0.00    +0.000 NA
ATOM      9  C   UNL     1      59.333  76.534  72.857  0.00  0.00    +0.000 A 
ENDROOT
TORSDOF 0
ENDMDL
MODEL 8
REMARK VINA RESULT:    -3.966      3.287      4.115
REMARK INTER + INTRA:          -3.966
REMARK INTER:                  -3.966
REMARK INTRA:                   0.000
REMARK UNBOUND:                 0.000
ROOT
REMARK  Name = pyrazinamide
REMARK                            x       y       z     vdW  Elec       q    Type
REMARK                         _______ _______ _______ _____ _____    ______ ____
ATOM      1  N   UNL     1      60.919  62.790  67.281  0.00  0.00    +0.000 NA
ATOM      2  C   UNL     1      61.005  63.186  68.000  0.00  0.00    +0.000 C 
ATOM      3  O   UNL     1      61.266  63.968  68.010  0.00  0.00    +0.000 OA
ATOM      4  C   UNL     1      60.830  62.800  68.707  0.00  0.00    +0.000 A 
ATOM      5  N   UNL     1      60.917  63.196  69.425  0.00  0.00    +0.000 NA
ATOM      6  C   UNL     1      60.742  62.810  70.133  0.00  0.00    +0.000 A 
ATOM      7  C   UNL     1      60.481  62.028  70.122  0.00  0.00    +0.000 A 
ATOM      8  N   UNL     1      60.394  61.631  69.404  0.00  0.00    +0.000 NA
ATOM      9  C   UNL     1      60.569  62.017  68.696  0.00  0.00    +0.000 A 
ENDROOT
TORSDOF 0
ENDMDL
MODEL 9
REMARK VINA RESULT:    -3.914     11.425     12.120
REMARK INTER + INTRA:          -3.914
REMARK INTER:                  -3.914
REMARK INTRA:                   0.000
REMARK UNBOUND:                 0.000
ROOT
REMARK  Name = pyrazinamide
REMARK                            x       y       z     vdW  Elec       q    Type
REMARK                         _______ _______ _______ _____ _____    ______ ____
ATOM      1  N   UNL     1      63.849  59.804  52.763  0.00  0.00    +0.000 NA
ATOM      2  C   UNL     1      63.890  60.249  53.458  0.00  0.00    +0.000 C 
ATOM      3  O   UNL     1      63.569  59.952  54.157  0.00  0.00    +0.000 OA
ATOM      4  C   UNL     1      64.252  60.989  53.452  0.00  0.00    +0.000 A 
ATOM      5  N   UNL     1      64.294  61.434  54.146  0.00  0.00    +0.000 NA
ATOM      6  C   UNL     1      64.657  62.175  54.141  0.00  0.00    +0.000 A 
ATOM      7  C   UNL     1      64.978  62.471  53.442  0.00  0.00    +0.000 A 
ATOM      8  N   UNL     1      64.937  62.027  52.747  0.00  0.00    +0.000 NA
ATOM      9  C   UNL     1      64.574  61.286  52.752  0.00  0.00    +0.000 A 
ENDROOT
TORSDOF 0
ENDMDL
