MODEL 1
REMARK VINA RESULT:    -8.429      0.000      0.000
REMARK INTER + INTRA:          -8.429
REMARK INTER:                  -8.429
REMARK INTRA:                   0.000
REMARK UNBOUND:                 0.000
ROOT
REMARK  Name = pyridoxal phosphate
REMARK                            x       y       z     vdW  Elec       q    Type
REMARK                         _______ _______ _______ _____ _____    ______ ____
ATOM      1  C   UNL     1      62.380  61.590  63.510  0.00  0.00    +0.000 C 
ATOM      2  C   UNL     1      62.146  61.800  64.272  0.00  0.00    +0.000 A 
ATOM      3  N   UNL     1      62.671  62.195  64.770  0.00  0.00    +0.000 NA
ATOM      4  C   UNL     1      62.437  62.405  65.533  0.00  0.00    +0.000 A 
ATOM      5  C   UNL     1      61.678  62.220  65.797  0.00  0.00    +0.000 A 
ATOM      6  C   UNL     1      61.444  62.430  66.561  0.00  0.00    +0.000 C 
ATOM      7  O   UNL     1      60.685  62.244  66.825  0.00  0.00    +0.000 OA
ATOM      8  P   UNL     1      60.451  62.454  67.587  0.00  0.00    +0.000 P 
ATOM      9  O   UNL     1      60.217  62.665  68.350  0.00  0.00    +0.000 OA
ATOM     10  O   UNL     1      59.709  62.119  67.452  0.00  0.00    +0.000 OA
ATOM     11  O   UNL     1      61.192  62.790  67.722  0.00  0.00    +0.000 OA
ATOM     12  C   UNL     1      61.153  61.824  65.299  0.00  0.00    +0.000 A 
ATOM     13  C   UNL     1      60.393  61.638  65.563  0.00  0.00    +0.000 C 
ATOM     14  O   UNL     1      59.868  61.243  65.065  0.00  0.00    +0.000 OA
ATOM     15  C   UNL     1      61.387  61.614  64.537  0.00  0.00    +0.000 A 
ATOM     16  O   UNL     1      60.861  61.218  64.038  0.00  0.00    +0.000 OA
ENDROOT
TORSDOF 0
ENDMDL
MODEL 2
REMARK VINA RESULT:    -8.160      1.670      3.117
REMARK INTER + INTRA:          -8.160
REMARK INTER:                  -8.160
REMARK INTRA:                   0.000
REMARK UNBOUND:                 0.000
ROOT
REMARK  Name = pyridoxal phosphate
REMARK                            x       y       z     vdW  Elec       q    Type
REMARK                         _______ _______ _______ _____ _____    ______ ____
ATOM      1  C   UNL     1      60.106  63.002  68.262  0.00  0.00    +0.000 C 
ATOM      2  C   UNL     1      60.553  62.835  67.591  0.00  0.00    +0.000 A 
ATOM      3  N   UNL     1      61.345  63.062  67.555  0.00  0.00    +0.000 NA
ATOM      4  C   UNL     1      61.793  62.894  66.883  0.00  0.00    +0.000 A 
ATOM      5  C   UNL     1      61.449  62.500  66.246  0.00  0.00    +0.000 A 
ATOM      6  C   UNL     1      61.897  62.332  65.573  0.00  0.00    +0.000 C 
ATOM      7  O   UNL     1      61.552  61.937  64.936  0.00  0.00    +0.000 OA
ATOM      8  P   UNL     1      62.000  61.769  64.264  0.00  0.00    +0.000 P 
ATOM      9  O   UNL     1      62.447  61.602  63.591  0.00  0.00    +0.000 OA
ATOM     10  O   UNL     1      61.343  61.411  63.916  0.00  0.00    +0.000 OA
ATOM     11  O   UNL     1      62.656  62.128  64.611  0.00  0.00    +0.000 OA
ATOM     12  C   UNL     1      60.656  62.272  66.280  0.00  0.00    +0.000 A 
ATOM     13  C   UNL     1      60.311  61.878  65.643  0.00  0.00    +0.000 C 
ATOM     14  O   UNL     1      59.519  61.651  65.678  0.00  0.00    +0.000 OA
ATOM     15  C   UNL     1      60.208  62.440  66.953  0.00  0.00    +0.000 A 
ATOM     16  O   UNL     1      59.415  62.213  66.988  0.00  0.00    +0.000 OA
ENDROOT
TORSDOF 0
ENDMDL
MODEL 3
REMARK VINA RESULT:    -7.358      2.629      4.255
REMARK INTER + INTRA:          -7.358
REMARK INTER:                  -7.358
REMARK INTRA:                   0.000
REMARK UNBOUND:                 0.000
ROOT
REMARK  Name = pyridoxal phosphate
REMARK                            x       y       z     vdW  Elec       q    Type
REMARK                         _______ _______ _______ _____ _____    ______ ____
ATOM      1  C   UNL     1      60.493  62.786  70.823  0.00  0.00    +0.000 C 
ATOM      2  C   UNL     1      60.582  62.617  70.022  0.00  0.00    +0.000 A 
ATOM      3  N   UNL     1      60.291  61.909  69.714  0.00  0.00    +0.000 NA
ATOM      4  C   UNL     1      60.381  61.740  68.912  0.00  0.00    +0.000 A 
ATOM      5  C   UNL     1      60.762  62.279  68.417  0.00  0.00    +0.000 A 
ATOM      6  C   UNL     1      60.851  62.109  67.614  0.00  0.00    +0.000 C 
ATOM      7  O   UNL     1      61.232  62.649  67.119  0.00  0.00    +0.000 OA
ATOM      8  P   UNL     1      61.322  62.479  66.316  0.00  0.00    +0.000 P 
ATOM      9  O   UNL     1      61.411  62.310  65.514  0.00  0.00    +0.000 OA
ATOM     10  O   UNL     1      61.710  63.199  66.208  0.00  0.00    +0.000 OA
ATOM     11  O   UNL     1      60.934  61.759  66.425  0.00  0.00    +0.000 OA
ATOM     12  C   UNL     1      61.053  62.987  68.724  0.00  0.00    +0.000 A 
ATOM     13  C   UNL     1      61.434  63.526  68.229  0.00  0.00    +0.000 C 
ATOM     14  O   UNL     1      61.725  64.234  68.536  0.00  0.00    +0.000 OA
ATOM     15  C   UNL     1      60.964  63.156  69.526  0.00  0.00    +0.000 A 
ATOM     16  O   UNL     1      61.255  63.865  69.834  0.00  0.00    +0.000 OA
ENDROOT
TORSDOF 0
ENDMDL
MODEL 4
REMARK VINA RESULT:    -7.257      3.508      4.682
REMARK INTER + INTRA:          -7.257
REMARK INTER:                  -7.257
REMARK INTRA:                   0.000
REMARK UNBOUND:                 0.000
ROOT
REMARK  Name = pyridoxal phosphate
REMARK                            x       y       z     vdW  Elec       q    Type
REMARK                         _______ _______ _______ _____ _____    ______ ____
ATOM      1  C   UNL     1      60.641  62.338  67.733  0.00  0.00    +0.000 C 
ATOM      2  C   UNL     1      60.874  62.626  68.469  0.00  0.00    +0.000 A 
ATOM      3  N   UNL     1      61.337  63.307  68.519  0.00  0.00    +0.000 NA
ATOM      4  C   UNL     1      61.570  63.595  69.256  0.00  0.00    +0.000 A 
ATOM      5  C   UNL     1      61.340  63.203  69.943  0.00  0.00    +0.000 A 
ATOM      6  C   UNL     1      61.573  63.492  70.681  0.00  0.00    +0.000 C 
ATOM      7  O   UNL     1      61.342  63.099  71.369  0.00  0.00    +0.000 OA
ATOM      8  P   UNL     1      61.575  63.388  72.106  0.00  0.00    +0.000 P 
ATOM      9  O   UNL     1      61.809  63.676  72.843  0.00  0.00    +0.000 OA
ATOM     10  O   UNL     1      61.175  62.768  72.475  0.00  0.00    +0.000 OA
ATOM     11  O   UNL     1      61.976  64.007  71.737  0.00  0.00    +0.000 OA
ATOM     12  C   UNL     1      60.876  62.522  69.895  0.00  0.00    +0.000 A 
ATOM     13  C   UNL     1      60.645  62.130  70.583  0.00  0.00    +0.000 C 
ATOM     14  O   UNL     1      60.182  61.449  70.535  0.00  0.00    +0.000 OA
ATOM     15  C   UNL     1      60.643  62.234  69.158  0.00  0.00    +0.000 A 
ATOM     16  O   UNL     1      60.179  61.553  69.109  0.00  0.00    +0.000 OA
ENDROOT
TORSDOF 0
ENDMDL
MODEL 5
REMARK VINA RESULT:    -7.227      3.671      5.151
REMARK INTER + INTRA:          -7.227
REMARK INTER:                  -7.227
REMARK INTRA:                   0.000
REMARK UNBOUND:                 0.000
ROOT
REMARK  Name = pyridoxal phosphate
REMARK                            x       y       z     vdW  Elec       q    Type
REMARK                         _______ _______ _______ _____ _____    ______ ____
ATOM      1  C   UNL     1      61.524  62.774  72.281  0.00  0.00    +0.000 C 
ATOM      2  C   UNL     1      61.281  62.649  71.503  0.00  0.00    +0.000 A 
ATOM      3  N   UNL     1      60.746  62.047  71.329  0.00  0.00    +0.000 NA
ATOM      4  C   UNL     1      60.503  61.921  70.550  0.00  0.00    +0.000 A 
ATOM      5  C   UNL     1      60.796  62.399  69.946  0.00  0.00    +0.000 A 
ATOM      6  C   UNL     1      60.553  62.274  69.166  0.00  0.00    +0.000 C 
ATOM      7  O   UNL     1      60.847  62.753  68.562  0.00  0.00    +0.000 OA
ATOM      8  P   UNL     1      60.604  62.628  67.783  0.00  0.00    +0.000 P 
ATOM      9  O   UNL     1      60.361  62.503  67.004  0.00  0.00    +0.000 OA
ATOM     10  O   UNL     1      61.082  63.252  67.534  0.00  0.00    +0.000 OA
ATOM     11  O   UNL     1      60.126  62.003  68.032  0.00  0.00    +0.000 OA
ATOM     12  C   UNL     1      61.332  63.003  70.119  0.00  0.00    +0.000 A 
ATOM     13  C   UNL     1      61.625  63.481  69.514  0.00  0.00    +0.000 C 
ATOM     14  O   UNL     1      62.160  64.084  69.687  0.00  0.00    +0.000 OA
ATOM     15  C   UNL     1      61.574  63.128  70.897  0.00  0.00    +0.000 A 
ATOM     16  O   UNL     1      62.110  63.732  71.071  0.00  0.00    +0.000 OA
ENDROOT
TORSDOF 0
ENDMDL
MODEL 6
REMARK VINA RESULT:    -7.100      6.282      7.377
REMARK INTER + INTRA:          -7.100
REMARK INTER:                  -7.100
REMARK INTRA:                   0.000
REMARK UNBOUND:                 0.000
ROOT
REMARK  Name = pyridoxal phosphate
REMARK                            x       y       z     vdW  Elec       q    Type
REMARK                         _______ _______ _______ _____ _____    ______ ____
ATOM      1  C   UNL     1      62.598  63.856  70.578  0.00  0.00    +0.000 C 
ATOM      2  C   UNL     1      63.177  64.421  70.426  0.00  0.00    +0.000 A 
ATOM      3  N   UNL     1      63.599  64.399  69.717  0.00  0.00    +0.000 NA
ATOM      4  C   UNL     1      64.180  64.965  69.565  0.00  0.00    +0.000 A 
ATOM      5  C   UNL     1      64.338  65.553  70.120  0.00  0.00    +0.000 A 
ATOM      6  C   UNL     1      64.919  66.120  69.967  0.00  0.00    +0.000 C 
ATOM      7  O   UNL     1      65.078  66.708  70.523  0.00  0.00    +0.000 OA
ATOM      8  P   UNL     1      65.658  67.274  70.370  0.00  0.00    +0.000 P 
ATOM      9  O   UNL     1      66.238  67.840  70.217  0.00  0.00    +0.000 OA
ATOM     10  O   UNL     1      65.506  67.627  71.100  0.00  0.00    +0.000 OA
ATOM     11  O   UNL     1      65.810  66.921  69.640  0.00  0.00    +0.000 OA
ATOM     12  C   UNL     1      63.917  65.576  70.829  0.00  0.00    +0.000 A 
ATOM     13  C   UNL     1      64.075  66.165  71.385  0.00  0.00    +0.000 C 
ATOM     14  O   UNL     1      63.654  66.188  72.093  0.00  0.00    +0.000 OA
ATOM     15  C   UNL     1      63.336  65.010  70.982  0.00  0.00    +0.000 A 
ATOM     16  O   UNL     1      62.914  65.033  71.691  0.00  0.00    +0.000 OA
ENDROOT
TORSDOF 0
ENDMDL
MODEL 7
REMARK VINA RESULT:    -7.093      3.462      4.722
REMARK INTER + INTRA:          -7.093
REMARK INTER:                  -7.093
REMARK INTRA:                   0.000
REMARK UNBOUND:                 0.000
ROOT
REMARK  Name = pyridoxal phosphate
REMARK                            x       y       z     vdW  Elec       q    Type
REMARK                         _______ _______ _______ _____ _____    ______ ____
ATOM      1  C   UNL     1      60.760  62.378  67.594  0.00  0.00    +0.000 C 
ATOM      2  C   UNL     1      60.798  62.439  68.415  0.00  0.00    +0.000 A 
ATOM      3  N   UNL     1      60.376  61.913  68.889  0.00  0.00    +0.000 NA
ATOM      4  C   UNL     1      60.415  61.975  69.711  0.00  0.00    +0.000 A 
ATOM      5  C   UNL     1      60.876  62.563  70.058  0.00  0.00    +0.000 A 
ATOM      6  C   UNL     1      60.914  62.625  70.881  0.00  0.00    +0.000 C 
ATOM      7  O   UNL     1      61.376  63.214  71.229  0.00  0.00    +0.000 OA
ATOM      8  P   UNL     1      61.415  63.276  72.050  0.00  0.00    +0.000 P 
ATOM      9  O   UNL     1      61.454  63.338  72.872  0.00  0.00    +0.000 OA
ATOM     10  O   UNL     1      61.925  63.920  71.978  0.00  0.00    +0.000 OA
ATOM     11  O   UNL     1      60.904  62.632  72.123  0.00  0.00    +0.000 OA
ATOM     12  C   UNL     1      61.299  63.090  69.585  0.00  0.00    +0.000 A 
ATOM     13  C   UNL     1      61.761  63.679  69.933  0.00  0.00    +0.000 C 
ATOM     14  O   UNL     1      62.183  64.206  69.459  0.00  0.00    +0.000 OA
ATOM     15  C   UNL     1      61.260  63.028  68.763  0.00  0.00    +0.000 A 
ATOM     16  O   UNL     1      61.683  63.556  68.289  0.00  0.00    +0.000 OA
ENDROOT
TORSDOF 0
ENDMDL
MODEL 8
REMARK VINA RESULT:    -7.044      5.751      7.094
REMARK INTER + INTRA:          -7.044
REMARK INTER:                  -7.044
REMARK INTRA:                   0.000
REMARK UNBOUND:                 0.000
ROOT
REMARK  Name = pyridoxal phosphate
REMARK                            x       y       z     vdW  Elec       q    Type
REMARK                         _______ _______ _______ _____ _____    ______ ____
ATOM      1  C   UNL     1      65.800  67.628  70.844  0.00  0.00    +0.000 C 
ATOM      2  C   UNL     1      65.305  67.021  70.588  0.00  0.00    +0.000 A 
ATOM      3  N   UNL     1      65.402  66.699  69.834  0.00  0.00    +0.000 NA
ATOM      4  C   UNL     1      64.907  66.091  69.578  0.00  0.00    +0.000 A 
ATOM      5  C   UNL     1      64.315  65.805  70.075  0.00  0.00    +0.000 A 
ATOM      6  C   UNL     1      63.819  65.196  69.818  0.00  0.00    +0.000 C 
ATOM      7  O   UNL     1      63.226  64.910  70.315  0.00  0.00    +0.000 OA
ATOM      8  P   UNL     1      62.731  64.302  70.059  0.00  0.00    +0.000 P 
ATOM      9  O   UNL     1      62.236  63.694  69.802  0.00  0.00    +0.000 OA
ATOM     10  O   UNL     1      62.332  64.322  70.781  0.00  0.00    +0.000 OA
ATOM     11  O   UNL     1      63.130  64.282  69.337  0.00  0.00    +0.000 OA
ATOM     12  C   UNL     1      64.216  66.126  70.828  0.00  0.00    +0.000 A 
ATOM     13  C   UNL     1      63.623  65.840  71.326  0.00  0.00    +0.000 C 
ATOM     14  O   UNL     1      63.525  66.161  72.079  0.00  0.00    +0.000 OA
ATOM     15  C   UNL     1      64.711  66.734  71.085  0.00  0.00    +0.000 A 
ATOM     16  O   UNL     1      64.614  67.056  71.839  0.00  0.00    +0.000 OA
ENDROOT
TORSDOF 0
ENDMDL
MODEL 9
REMARK VINA RESULT:    -7.001      7.201      7.630
REMARK INTER + INTRA:          -7.001
REMARK INTER:                  -7.001
REMARK INTRA:                   0.000
REMARK UNBOUND:                 0.000
ROOT
REMARK  Name = pyridoxal phosphate
REMARK                            x       y       z     vdW  Elec       q    Type
REMARK                         _______ _______ _______ _____ _____    ______ ____
ATOM      1  C   UNL     1      61.360  62.776  72.455  0.00  0.00    +0.000 C 
ATOM      2  C   UNL     1      60.908  63.452  72.319  0.00  0.00    +0.000 A 
ATOM      3  N   UNL     1      60.167  63.388  71.962  0.00  0.00    +0.000 NA
ATOM      4  C   UNL     1      59.714  64.064  71.827  0.00  0.00    +0.000 A 
ATOM      5  C   UNL     1      60.003  64.804  72.048  0.00  0.00    +0.000 A 
ATOM      6  C   UNL     1      59.550  65.481  71.912  0.00  0.00    +0.000 C 
ATOM      7  O   UNL     1      59.839  66.222  72.133  0.00  0.00    +0.000 OA
ATOM      8  P   UNL     1      59.386  66.898  71.997  0.00  0.00    +0.000 P 
ATOM      9  O   UNL     1      58.934  67.575  71.862  0.00  0.00    +0.000 OA
ATOM     10  O   UNL     1      59.981  67.363  72.331  0.00  0.00    +0.000 OA
ATOM     11  O   UNL     1      58.792  66.433  71.664  0.00  0.00    +0.000 OA
ATOM     12  C   UNL     1      60.744  64.869  72.405  0.00  0.00    +0.000 A 
ATOM     13  C   UNL     1      61.033  65.610  72.626  0.00  0.00    +0.000 C 
ATOM     14  O   UNL     1      61.774  65.674  72.982  0.00  0.00    +0.000 OA
ATOM     15  C   UNL     1      61.197  64.193  72.540  0.00  0.00    +0.000 A 
ATOM     16  O   UNL     1      61.938  64.257  72.897  0.00  0.00    +0.000 OA
ENDROOT
TORSDOF 0
ENDMDL
