MODEL 1
REMARK VINA RESULT:    -8.782      0.000      0.000
REMARK INTER + INTRA:          -8.782
REMARK INTER:                  -8.782
REMARK INTRA:                   0.000
REMARK UNBOUND:                 0.000
ROOT
REMARK  Name = pyricarbate
REMARK                            x       y       z     vdW  Elec       q    Type
REMARK                         _______ _______ _______ _____ _____    ______ ____
ATOM      1  C   UNL     1      62.229  61.501  63.474  0.00  0.00    +0.000 C 
ATOM      2  N   UNL     1      61.707  61.621  64.101  0.00  0.00    +0.000 NA
ATOM      3  C   UNL     1      61.975  61.970  64.799  0.00  0.00    +0.000 C 
ATOM      4  O   UNL     1      62.765  62.200  64.870  0.00  0.00    +0.000 OA
ATOM      5  O   UNL     1      61.453  62.091  65.427  0.00  0.00    +0.000 OA
ATOM      6  C   UNL     1      61.721  62.440  66.125  0.00  0.00    +0.000 C 
ATOM      7  C   UNL     1      61.199  62.560  66.753  0.00  0.00    +0.000 A 
ATOM      8  C   UNL     1      60.409  62.331  66.682  0.00  0.00    +0.000 A 
ATOM      9  C   UNL     1      59.887  62.451  67.310  0.00  0.00    +0.000 A 
ATOM     10  C   UNL     1      60.155  62.801  68.008  0.00  0.00    +0.000 A 
ATOM     11  C   UNL     1      60.944  63.030  68.078  0.00  0.00    +0.000 A 
ATOM     12  C   UNL     1      61.211  63.379  68.776  0.00  0.00    +0.000 C 
ATOM     13  O   UNL     1      62.001  63.608  68.846  0.00  0.00    +0.000 OA
ATOM     14  C   UNL     1      62.268  63.958  69.544  0.00  0.00    +0.000 C 
ATOM     15  O   UNL     1      61.747  64.077  70.171  0.00  0.00    +0.000 OA
ATOM     16  N   UNL     1      63.058  64.187  69.614  0.00  0.00    +0.000 NA
ATOM     17  C   UNL     1      63.325  64.536  70.312  0.00  0.00    +0.000 C 
ATOM     18  N   UNL     1      61.466  62.909  67.450  0.00  0.00    +0.000 NA
ENDROOT
TORSDOF 0
ENDMDL
MODEL 2
REMARK VINA RESULT:    -8.675      1.845      2.066
REMARK INTER + INTRA:          -8.675
REMARK INTER:                  -8.675
REMARK INTRA:                   0.000
REMARK UNBOUND:                 0.000
ROOT
REMARK  Name = pyricarbate
REMARK                            x       y       z     vdW  Elec       q    Type
REMARK                         _______ _______ _______ _____ _____    ______ ____
ATOM      1  C   UNL     1      62.169  61.759  64.544  0.00  0.00    +0.000 C 
ATOM      2  N   UNL     1      61.904  61.676  65.320  0.00  0.00    +0.000 NA
ATOM      3  C   UNL     1      61.644  62.337  65.741  0.00  0.00    +0.000 C 
ATOM      4  O   UNL     1      61.650  63.082  65.385  0.00  0.00    +0.000 OA
ATOM      5  O   UNL     1      61.378  62.253  66.518  0.00  0.00    +0.000 OA
ATOM      6  C   UNL     1      61.119  62.915  66.938  0.00  0.00    +0.000 C 
ATOM      7  C   UNL     1      60.853  62.831  67.716  0.00  0.00    +0.000 A 
ATOM      8  C   UNL     1      60.848  62.086  68.071  0.00  0.00    +0.000 A 
ATOM      9  C   UNL     1      60.582  62.003  68.848  0.00  0.00    +0.000 A 
ATOM     10  C   UNL     1      60.322  62.664  69.269  0.00  0.00    +0.000 A 
ATOM     11  C   UNL     1      60.328  63.408  68.912  0.00  0.00    +0.000 A 
ATOM     12  C   UNL     1      60.069  64.068  69.333  0.00  0.00    +0.000 C 
ATOM     13  O   UNL     1      60.074  64.812  68.977  0.00  0.00    +0.000 OA
ATOM     14  C   UNL     1      59.815  65.472  69.398  0.00  0.00    +0.000 C 
ATOM     15  O   UNL     1      59.550  65.389  70.173  0.00  0.00    +0.000 OA
ATOM     16  N   UNL     1      59.820  66.217  69.041  0.00  0.00    +0.000 NA
ATOM     17  C   UNL     1      59.561  66.877  69.462  0.00  0.00    +0.000 C 
ATOM     18  N   UNL     1      60.594  63.491  68.136  0.00  0.00    +0.000 NA
ENDROOT
TORSDOF 0
ENDMDL
MODEL 3
REMARK VINA RESULT:    -8.629      0.962      4.533
REMARK INTER + INTRA:          -8.629
REMARK INTER:                  -8.629
REMARK INTRA:                   0.000
REMARK UNBOUND:                 0.000
ROOT
REMARK  Name = pyricarbate
REMARK                            x       y       z     vdW  Elec       q    Type
REMARK                         _______ _______ _______ _____ _____    ______ ____
ATOM      1  C   UNL     1      62.815  65.698  70.885  0.00  0.00    +0.000 C 
ATOM      2  N   UNL     1      62.328  65.087  70.625  0.00  0.00    +0.000 NA
ATOM      3  C   UNL     1      62.400  64.801  69.853  0.00  0.00    +0.000 C 
ATOM      4  O   UNL     1      62.961  65.129  69.343  0.00  0.00    +0.000 OA
ATOM      5  O   UNL     1      61.913  64.189  69.592  0.00  0.00    +0.000 OA
ATOM      6  C   UNL     1      61.986  63.905  68.821  0.00  0.00    +0.000 C 
ATOM      7  C   UNL     1      61.497  63.292  68.560  0.00  0.00    +0.000 A 
ATOM      8  C   UNL     1      60.937  62.965  69.070  0.00  0.00    +0.000 A 
ATOM      9  C   UNL     1      60.450  62.353  68.809  0.00  0.00    +0.000 A 
ATOM     10  C   UNL     1      60.522  62.068  68.038  0.00  0.00    +0.000 A 
ATOM     11  C   UNL     1      61.082  62.395  67.529  0.00  0.00    +0.000 A 
ATOM     12  C   UNL     1      61.154  62.110  66.758  0.00  0.00    +0.000 C 
ATOM     13  O   UNL     1      61.714  62.437  66.248  0.00  0.00    +0.000 OA
ATOM     14  C   UNL     1      61.786  62.152  65.477  0.00  0.00    +0.000 C 
ATOM     15  O   UNL     1      61.299  61.541  65.217  0.00  0.00    +0.000 OA
ATOM     16  N   UNL     1      62.347  62.480  64.967  0.00  0.00    +0.000 NA
ATOM     17  C   UNL     1      62.419  62.194  64.197  0.00  0.00    +0.000 C 
ATOM     18  N   UNL     1      61.570  63.007  67.790  0.00  0.00    +0.000 NA
ENDROOT
TORSDOF 0
ENDMDL
MODEL 4
REMARK VINA RESULT:    -8.212      2.490      5.314
REMARK INTER + INTRA:          -8.212
REMARK INTER:                  -8.212
REMARK INTRA:                   0.000
REMARK UNBOUND:                 0.000
ROOT
REMARK  Name = pyricarbate
REMARK                            x       y       z     vdW  Elec       q    Type
REMARK                         _______ _______ _______ _____ _____    ______ ____
ATOM      1  C   UNL     1      59.283  66.246  72.352  0.00  0.00    +0.000 C 
ATOM      2  N   UNL     1      59.443  65.450  72.209  0.00  0.00    +0.000 NA
ATOM      3  C   UNL     1      59.674  65.205  71.455  0.00  0.00    +0.000 C 
ATOM      4  O   UNL     1      59.746  65.757  70.845  0.00  0.00    +0.000 OA
ATOM      5  O   UNL     1      59.834  64.408  71.312  0.00  0.00    +0.000 OA
ATOM      6  C   UNL     1      60.065  64.163  70.558  0.00  0.00    +0.000 C 
ATOM      7  C   UNL     1      60.225  63.366  70.415  0.00  0.00    +0.000 A 
ATOM      8  C   UNL     1      60.153  62.815  71.025  0.00  0.00    +0.000 A 
ATOM      9  C   UNL     1      60.313  62.018  70.881  0.00  0.00    +0.000 A 
ATOM     10  C   UNL     1      60.544  61.773  70.128  0.00  0.00    +0.000 A 
ATOM     11  C   UNL     1      60.616  62.324  69.519  0.00  0.00    +0.000 A 
ATOM     12  C   UNL     1      60.847  62.078  68.766  0.00  0.00    +0.000 C 
ATOM     13  O   UNL     1      60.919  62.630  68.156  0.00  0.00    +0.000 OA
ATOM     14  C   UNL     1      61.151  62.385  67.404  0.00  0.00    +0.000 C 
ATOM     15  O   UNL     1      61.310  61.589  67.261  0.00  0.00    +0.000 OA
ATOM     16  N   UNL     1      61.223  62.936  66.794  0.00  0.00    +0.000 NA
ATOM     17  C   UNL     1      61.454  62.691  66.041  0.00  0.00    +0.000 C 
ATOM     18  N   UNL     1      60.456  63.121  69.662  0.00  0.00    +0.000 NA
ENDROOT
TORSDOF 0
ENDMDL
MODEL 5
REMARK VINA RESULT:    -8.201      2.097      2.804
REMARK INTER + INTRA:          -8.201
REMARK INTER:                  -8.201
REMARK INTRA:                   0.000
REMARK UNBOUND:                 0.000
ROOT
REMARK  Name = pyricarbate
REMARK                            x       y       z     vdW  Elec       q    Type
REMARK                         _______ _______ _______ _____ _____    ______ ____
ATOM      1  C   UNL     1      59.377  62.041  66.099  0.00  0.00    +0.000 C 
ATOM      2  N   UNL     1      59.500  61.873  66.896  0.00  0.00    +0.000 NA
ATOM      3  C   UNL     1      59.964  62.377  67.358  0.00  0.00    +0.000 C 
ATOM      4  O   UNL     1      60.304  63.049  67.020  0.00  0.00    +0.000 OA
ATOM      5  O   UNL     1      60.087  62.208  68.156  0.00  0.00    +0.000 OA
ATOM      6  C   UNL     1      60.551  62.712  68.616  0.00  0.00    +0.000 C 
ATOM      7  C   UNL     1      60.675  62.544  69.415  0.00  0.00    +0.000 A 
ATOM      8  C   UNL     1      60.334  61.872  69.752  0.00  0.00    +0.000 A 
ATOM      9  C   UNL     1      60.458  61.703  70.550  0.00  0.00    +0.000 A 
ATOM     10  C   UNL     1      60.922  62.207  71.012  0.00  0.00    +0.000 A 
ATOM     11  C   UNL     1      61.262  62.878  70.674  0.00  0.00    +0.000 A 
ATOM     12  C   UNL     1      61.725  63.381  71.135  0.00  0.00    +0.000 C 
ATOM     13  O   UNL     1      62.065  64.054  70.797  0.00  0.00    +0.000 OA
ATOM     14  C   UNL     1      62.529  64.557  71.259  0.00  0.00    +0.000 C 
ATOM     15  O   UNL     1      62.652  64.388  72.056  0.00  0.00    +0.000 OA
ATOM     16  N   UNL     1      62.869  65.229  70.921  0.00  0.00    +0.000 NA
ATOM     17  C   UNL     1      63.332  65.732  71.382  0.00  0.00    +0.000 C 
ATOM     18  N   UNL     1      61.138  63.047  69.876  0.00  0.00    +0.000 NA
ENDROOT
TORSDOF 0
ENDMDL
MODEL 6
REMARK VINA RESULT:    -8.012      2.833      6.070
REMARK INTER + INTRA:          -8.012
REMARK INTER:                  -8.012
REMARK INTRA:                   0.000
REMARK UNBOUND:                 0.000
ROOT
REMARK  Name = pyricarbate
REMARK                            x       y       z     vdW  Elec       q    Type
REMARK                         _______ _______ _______ _____ _____    ______ ____
ATOM      1  C   UNL     1      62.603  67.577  72.776  0.00  0.00    +0.000 C 
ATOM      2  N   UNL     1      62.434  66.779  72.893  0.00  0.00    +0.000 NA
ATOM      3  C   UNL     1      62.173  66.315  72.262  0.00  0.00    +0.000 C 
ATOM      4  O   UNL     1      62.080  66.651  71.514  0.00  0.00    +0.000 OA
ATOM      5  O   UNL     1      62.003  65.516  72.380  0.00  0.00    +0.000 OA
ATOM      6  C   UNL     1      61.742  65.053  71.749  0.00  0.00    +0.000 C 
ATOM      7  C   UNL     1      61.573  64.253  71.867  0.00  0.00    +0.000 A 
ATOM      8  C   UNL     1      61.665  63.918  72.615  0.00  0.00    +0.000 A 
ATOM      9  C   UNL     1      61.496  63.120  72.733  0.00  0.00    +0.000 A 
ATOM     10  C   UNL     1      61.234  62.656  72.102  0.00  0.00    +0.000 A 
ATOM     11  C   UNL     1      61.142  62.991  71.354  0.00  0.00    +0.000 A 
ATOM     12  C   UNL     1      60.881  62.527  70.724  0.00  0.00    +0.000 C 
ATOM     13  O   UNL     1      60.789  62.863  69.975  0.00  0.00    +0.000 OA
ATOM     14  C   UNL     1      60.528  62.399  69.346  0.00  0.00    +0.000 C 
ATOM     15  O   UNL     1      60.359  61.602  69.463  0.00  0.00    +0.000 OA
ATOM     16  N   UNL     1      60.435  62.735  68.597  0.00  0.00    +0.000 NA
ATOM     17  C   UNL     1      60.174  62.271  67.967  0.00  0.00    +0.000 C 
ATOM     18  N   UNL     1      61.312  63.790  71.236  0.00  0.00    +0.000 NA
ENDROOT
TORSDOF 0
ENDMDL
MODEL 7
REMARK VINA RESULT:    -7.828      2.021      5.315
REMARK INTER + INTRA:          -7.828
REMARK INTER:                  -7.828
REMARK INTRA:                   0.000
REMARK UNBOUND:                 0.000
ROOT
REMARK  Name = pyricarbate
REMARK                            x       y       z     vdW  Elec       q    Type
REMARK                         _______ _______ _______ _____ _____    ______ ____
ATOM      1  C   UNL     1      66.003  67.425  70.271  0.00  0.00    +0.000 C 
ATOM      2  N   UNL     1      65.423  66.932  70.586  0.00  0.00    +0.000 NA
ATOM      3  C   UNL     1      64.964  66.462  70.086  0.00  0.00    +0.000 C 
ATOM      4  O   UNL     1      65.085  66.487  69.269  0.00  0.00    +0.000 OA
ATOM      5  O   UNL     1      64.383  65.969  70.401  0.00  0.00    +0.000 OA
ATOM      6  C   UNL     1      63.924  65.500  69.901  0.00  0.00    +0.000 C 
ATOM      7  C   UNL     1      63.343  65.006  70.217  0.00  0.00    +0.000 A 
ATOM      8  C   UNL     1      63.221  64.981  71.033  0.00  0.00    +0.000 A 
ATOM      9  C   UNL     1      62.641  64.488  71.348  0.00  0.00    +0.000 A 
ATOM     10  C   UNL     1      62.181  64.018  70.848  0.00  0.00    +0.000 A 
ATOM     11  C   UNL     1      62.303  64.043  70.033  0.00  0.00    +0.000 A 
ATOM     12  C   UNL     1      61.844  63.574  69.534  0.00  0.00    +0.000 C 
ATOM     13  O   UNL     1      61.966  63.599  68.717  0.00  0.00    +0.000 OA
ATOM     14  C   UNL     1      61.506  63.130  68.218  0.00  0.00    +0.000 C 
ATOM     15  O   UNL     1      60.926  62.637  68.533  0.00  0.00    +0.000 OA
ATOM     16  N   UNL     1      61.628  63.155  67.402  0.00  0.00    +0.000 NA
ATOM     17  C   UNL     1      61.169  62.686  66.902  0.00  0.00    +0.000 C 
ATOM     18  N   UNL     1      62.884  64.537  69.717  0.00  0.00    +0.000 NA
ENDROOT
TORSDOF 0
ENDMDL
MODEL 8
REMARK VINA RESULT:    -7.543      4.575      6.189
REMARK INTER + INTRA:          -7.543
REMARK INTER:                  -7.543
REMARK INTRA:                   0.000
REMARK UNBOUND:                 0.000
ROOT
REMARK  Name = pyricarbate
REMARK                            x       y       z     vdW  Elec       q    Type
REMARK                         _______ _______ _______ _____ _____    ______ ____
ATOM      1  C   UNL     1      66.175  67.599  69.881  0.00  0.00    +0.000 C 
ATOM      2  N   UNL     1      65.593  67.513  70.458  0.00  0.00    +0.000 NA
ATOM      3  C   UNL     1      65.104  66.847  70.455  0.00  0.00    +0.000 C 
ATOM      4  O   UNL     1      65.199  66.268  69.874  0.00  0.00    +0.000 OA
ATOM      5  O   UNL     1      64.521  66.761  71.032  0.00  0.00    +0.000 OA
ATOM      6  C   UNL     1      64.033  66.096  71.028  0.00  0.00    +0.000 C 
ATOM      7  C   UNL     1      63.448  66.010  71.606  0.00  0.00    +0.000 A 
ATOM      8  C   UNL     1      63.354  66.589  72.186  0.00  0.00    +0.000 A 
ATOM      9  C   UNL     1      62.770  66.503  72.763  0.00  0.00    +0.000 A 
ATOM     10  C   UNL     1      62.282  65.838  72.760  0.00  0.00    +0.000 A 
ATOM     11  C   UNL     1      62.377  65.259  72.180  0.00  0.00    +0.000 A 
ATOM     12  C   UNL     1      61.889  64.595  72.177  0.00  0.00    +0.000 C 
ATOM     13  O   UNL     1      61.984  64.015  71.597  0.00  0.00    +0.000 OA
ATOM     14  C   UNL     1      61.496  63.350  71.594  0.00  0.00    +0.000 C 
ATOM     15  O   UNL     1      60.913  63.265  72.171  0.00  0.00    +0.000 OA
ATOM     16  N   UNL     1      61.591  62.771  71.014  0.00  0.00    +0.000 NA
ATOM     17  C   UNL     1      61.103  62.106  71.012  0.00  0.00    +0.000 C 
ATOM     18  N   UNL     1      62.961  65.345  71.603  0.00  0.00    +0.000 NA
ENDROOT
TORSDOF 0
ENDMDL
MODEL 9
REMARK VINA RESULT:    -7.458      3.252      5.063
REMARK INTER + INTRA:          -7.458
REMARK INTER:                  -7.458
REMARK INTRA:                   0.000
REMARK UNBOUND:                 0.000
ROOT
REMARK  Name = pyricarbate
REMARK                            x       y       z     vdW  Elec       q    Type
REMARK                         _______ _______ _______ _____ _____    ______ ____
ATOM      1  C   UNL     1      60.500  62.106  69.397  0.00  0.00    +0.000 C 
ATOM      2  N   UNL     1      60.659  62.618  70.023  0.00  0.00    +0.000 NA
ATOM      3  C   UNL     1      61.297  63.140  69.979  0.00  0.00    +0.000 C 
ATOM      4  O   UNL     1      61.776  63.149  69.306  0.00  0.00    +0.000 OA
ATOM      5  O   UNL     1      61.455  63.652  70.605  0.00  0.00    +0.000 OA
ATOM      6  C   UNL     1      62.093  64.174  70.560  0.00  0.00    +0.000 C 
ATOM      7  C   UNL     1      62.252  64.687  71.187  0.00  0.00    +0.000 A 
ATOM      8  C   UNL     1      61.773  64.677  71.859  0.00  0.00    +0.000 A 
ATOM      9  C   UNL     1      61.931  65.190  72.485  0.00  0.00    +0.000 A 
ATOM     10  C   UNL     1      62.569  65.712  72.441  0.00  0.00    +0.000 A 
ATOM     11  C   UNL     1      63.048  65.721  71.769  0.00  0.00    +0.000 A 
ATOM     12  C   UNL     1      63.685  66.242  71.725  0.00  0.00    +0.000 C 
ATOM     13  O   UNL     1      64.165  66.251  71.052  0.00  0.00    +0.000 OA
ATOM     14  C   UNL     1      64.802  66.773  71.008  0.00  0.00    +0.000 C 
ATOM     15  O   UNL     1      64.960  67.285  71.634  0.00  0.00    +0.000 OA
ATOM     16  N   UNL     1      65.281  66.782  70.336  0.00  0.00    +0.000 NA
ATOM     17  C   UNL     1      65.919  67.304  70.292  0.00  0.00    +0.000 C 
ATOM     18  N   UNL     1      62.889  65.208  71.142  0.00  0.00    +0.000 NA
ENDROOT
TORSDOF 0
ENDMDL
