MODEL 1
REMARK VINA RESULT:    -6.706      0.000      0.000
REMARK INTER + INTRA:          -6.706
REMARK INTER:                  -6.706
REMARK INTRA:                   0.000
REMARK UNBOUND:                 0.000
ROOT
REMARK  Name = pyridostigmine
REMARK                            x       y       z     vdW  Elec       q    Type
REMARK                         _______ _______ _______ _____ _____    ______ ____
ATOM      1  C   UNL     1      61.255  63.145  68.178  0.00  0.00    +0.000 C 
ATOM      2  N   UNL     1      60.888  62.693  67.593  0.00  0.00    +0.000 N 
ATOM      3  C   UNL     1      60.139  62.373  67.726  0.00  0.00    +0.000 C 
ATOM      4  C   UNL     1      61.271  62.561  66.875  0.00  0.00    +0.000 C 
ATOM      5  O   UNL     1      62.021  62.881  66.741  0.00  0.00    +0.000 OA
ATOM      6  O   UNL     1      60.905  62.109  66.288  0.00  0.00    +0.000 OA
ATOM      7  C   UNL     1      61.288  61.977  65.571  0.00  0.00    +0.000 C 
ATOM      8  C   UNL     1      60.923  61.526  64.985  0.00  0.00    +0.000 C 
ATOM      9  N   UNL     1      61.306  61.394  64.266  0.00  0.00    +0.000 N 
ATOM     10  C   UNL     1      60.940  60.943  63.681  0.00  0.00    +0.000 C 
ATOM     11  C   UNL     1      62.054  61.713  64.133  0.00  0.00    +0.000 C 
ATOM     12  C   UNL     1      62.421  62.165  64.719  0.00  0.00    +0.000 C 
ATOM     13  C   UNL     1      62.038  62.297  65.437  0.00  0.00    +0.000 C 
ENDROOT
TORSDOF 0
ENDMDL
MODEL 2
REMARK VINA RESULT:    -6.464      0.681      3.372
REMARK INTER + INTRA:          -6.464
REMARK INTER:                  -6.464
REMARK INTRA:                   0.000
REMARK UNBOUND:                 0.000
ROOT
REMARK  Name = pyridostigmine
REMARK                            x       y       z     vdW  Elec       q    Type
REMARK                         _______ _______ _______ _____ _____    ______ ____
ATOM      1  C   UNL     1      61.246  61.253  63.983  0.00  0.00    +0.000 C 
ATOM      2  N   UNL     1      61.573  61.724  64.575  0.00  0.00    +0.000 N 
ATOM      3  C   UNL     1      62.347  62.002  64.504  0.00  0.00    +0.000 C 
ATOM      4  C   UNL     1      61.126  61.919  65.241  0.00  0.00    +0.000 C 
ATOM      5  O   UNL     1      60.352  61.642  65.314  0.00  0.00    +0.000 OA
ATOM      6  O   UNL     1      61.453  62.391  65.835  0.00  0.00    +0.000 OA
ATOM      7  C   UNL     1      61.006  62.585  66.499  0.00  0.00    +0.000 C 
ATOM      8  C   UNL     1      61.332  63.056  67.093  0.00  0.00    +0.000 C 
ATOM      9  N   UNL     1      60.885  63.250  67.758  0.00  0.00    +0.000 N 
ATOM     10  C   UNL     1      61.212  63.721  68.351  0.00  0.00    +0.000 C 
ATOM     11  C   UNL     1      60.112  62.973  67.830  0.00  0.00    +0.000 C 
ATOM     12  C   UNL     1      59.785  62.502  67.238  0.00  0.00    +0.000 C 
ATOM     13  C   UNL     1      60.232  62.308  66.572  0.00  0.00    +0.000 C 
ENDROOT
TORSDOF 0
ENDMDL
MODEL 3
REMARK VINA RESULT:    -6.131      1.220      1.956
REMARK INTER + INTRA:          -6.131
REMARK INTER:                  -6.131
REMARK INTRA:                   0.000
REMARK UNBOUND:                 0.000
ROOT
REMARK  Name = pyridostigmine
REMARK                            x       y       z     vdW  Elec       q    Type
REMARK                         _______ _______ _______ _____ _____    ______ ____
ATOM      1  C   UNL     1      60.147  64.124  69.113  0.00  0.00    +0.000 C 
ATOM      2  N   UNL     1      60.761  63.950  68.589  0.00  0.00    +0.000 N 
ATOM      3  C   UNL     1      61.512  64.268  68.712  0.00  0.00    +0.000 C 
ATOM      4  C   UNL     1      60.623  63.457  67.942  0.00  0.00    +0.000 C 
ATOM      5  O   UNL     1      59.871  63.138  67.819  0.00  0.00    +0.000 OA
ATOM      6  O   UNL     1      61.236  63.283  67.417  0.00  0.00    +0.000 OA
ATOM      7  C   UNL     1      61.098  62.791  66.771  0.00  0.00    +0.000 C 
ATOM      8  C   UNL     1      61.710  62.617  66.247  0.00  0.00    +0.000 C 
ATOM      9  N   UNL     1      61.572  62.124  65.599  0.00  0.00    +0.000 N 
ATOM     10  C   UNL     1      62.185  61.950  65.076  0.00  0.00    +0.000 C 
ATOM     11  C   UNL     1      60.822  61.805  65.477  0.00  0.00    +0.000 C 
ATOM     12  C   UNL     1      60.208  61.979  66.001  0.00  0.00    +0.000 C 
ATOM     13  C   UNL     1      60.346  62.472  66.648  0.00  0.00    +0.000 C 
ENDROOT
TORSDOF 0
ENDMDL
MODEL 4
REMARK VINA RESULT:    -5.849      2.330      4.875
REMARK INTER + INTRA:          -5.849
REMARK INTER:                  -5.849
REMARK INTRA:                   0.000
REMARK UNBOUND:                 0.000
ROOT
REMARK  Name = pyridostigmine
REMARK                            x       y       z     vdW  Elec       q    Type
REMARK                         _______ _______ _______ _____ _____    ______ ____
ATOM      1  C   UNL     1      61.054  62.136  66.947  0.00  0.00    +0.000 C 
ATOM      2  N   UNL     1      61.068  62.691  67.557  0.00  0.00    +0.000 N 
ATOM      3  C   UNL     1      61.266  63.476  67.397  0.00  0.00    +0.000 C 
ATOM      4  C   UNL     1      60.886  62.460  68.328  0.00  0.00    +0.000 C 
ATOM      5  O   UNL     1      60.688  61.675  68.488  0.00  0.00    +0.000 OA
ATOM      6  O   UNL     1      60.900  63.015  68.939  0.00  0.00    +0.000 OA
ATOM      7  C   UNL     1      60.718  62.785  69.709  0.00  0.00    +0.000 C 
ATOM      8  C   UNL     1      60.732  63.339  70.320  0.00  0.00    +0.000 C 
ATOM      9  N   UNL     1      60.549  63.109  71.091  0.00  0.00    +0.000 N 
ATOM     10  C   UNL     1      60.564  63.663  71.701  0.00  0.00    +0.000 C 
ATOM     11  C   UNL     1      60.352  62.325  71.251  0.00  0.00    +0.000 C 
ATOM     12  C   UNL     1      60.337  61.769  70.640  0.00  0.00    +0.000 C 
ATOM     13  C   UNL     1      60.520  62.000  69.869  0.00  0.00    +0.000 C 
ENDROOT
TORSDOF 0
ENDMDL
MODEL 5
REMARK VINA RESULT:    -5.828      1.560      2.693
REMARK INTER + INTRA:          -5.828
REMARK INTER:                  -5.828
REMARK INTRA:                   0.000
REMARK UNBOUND:                 0.000
ROOT
REMARK  Name = pyridostigmine
REMARK                            x       y       z     vdW  Elec       q    Type
REMARK                         _______ _______ _______ _____ _____    ______ ____
ATOM      1  C   UNL     1      61.491  64.124  70.282  0.00  0.00    +0.000 C 
ATOM      2  N   UNL     1      61.847  63.960  69.556  0.00  0.00    +0.000 N 
ATOM      3  C   UNL     1      62.634  64.168  69.424  0.00  0.00    +0.000 C 
ATOM      4  C   UNL     1      61.414  63.588  68.960  0.00  0.00    +0.000 C 
ATOM      5  O   UNL     1      60.626  63.380  69.090  0.00  0.00    +0.000 OA
ATOM      6  O   UNL     1      61.769  63.424  68.233  0.00  0.00    +0.000 OA
ATOM      7  C   UNL     1      61.337  63.052  67.638  0.00  0.00    +0.000 C 
ATOM      8  C   UNL     1      61.691  62.888  66.911  0.00  0.00    +0.000 C 
ATOM      9  N   UNL     1      61.258  62.516  66.315  0.00  0.00    +0.000 N 
ATOM     10  C   UNL     1      61.613  62.353  65.589  0.00  0.00    +0.000 C 
ATOM     11  C   UNL     1      60.471  62.309  66.446  0.00  0.00    +0.000 C 
ATOM     12  C   UNL     1      60.116  62.472  67.172  0.00  0.00    +0.000 C 
ATOM     13  C   UNL     1      60.548  62.844  67.768  0.00  0.00    +0.000 C 
ENDROOT
TORSDOF 0
ENDMDL
MODEL 6
REMARK VINA RESULT:    -5.730      2.417      3.190
REMARK INTER + INTRA:          -5.730
REMARK INTER:                  -5.730
REMARK INTRA:                   0.000
REMARK UNBOUND:                 0.000
ROOT
REMARK  Name = pyridostigmine
REMARK                            x       y       z     vdW  Elec       q    Type
REMARK                         _______ _______ _______ _____ _____    ______ ____
ATOM      1  C   UNL     1      61.327  62.436  71.265  0.00  0.00    +0.000 C 
ATOM      2  N   UNL     1      60.845  62.154  70.657  0.00  0.00    +0.000 N 
ATOM      3  C   UNL     1      60.280  61.573  70.812  0.00  0.00    +0.000 C 
ATOM      4  C   UNL     1      60.929  62.453  69.893  0.00  0.00    +0.000 C 
ATOM      5  O   UNL     1      61.494  63.035  69.737  0.00  0.00    +0.000 OA
ATOM      6  O   UNL     1      60.448  62.171  69.284  0.00  0.00    +0.000 OA
ATOM      7  C   UNL     1      60.531  62.470  68.521  0.00  0.00    +0.000 C 
ATOM      8  C   UNL     1      60.051  62.189  67.912  0.00  0.00    +0.000 C 
ATOM      9  N   UNL     1      60.134  62.489  67.148  0.00  0.00    +0.000 N 
ATOM     10  C   UNL     1      59.654  62.207  66.540  0.00  0.00    +0.000 C 
ATOM     11  C   UNL     1      60.698  63.069  66.992  0.00  0.00    +0.000 C 
ATOM     12  C   UNL     1      61.180  63.351  67.600  0.00  0.00    +0.000 C 
ATOM     13  C   UNL     1      61.096  63.052  68.364  0.00  0.00    +0.000 C 
ENDROOT
TORSDOF 0
ENDMDL
MODEL 7
REMARK VINA RESULT:    -5.725      5.312      7.210
REMARK INTER + INTRA:          -5.725
REMARK INTER:                  -5.725
REMARK INTRA:                   0.000
REMARK UNBOUND:                 0.000
ROOT
REMARK  Name = pyridostigmine
REMARK                            x       y       z     vdW  Elec       q    Type
REMARK                         _______ _______ _______ _____ _____    ______ ____
ATOM      1  C   UNL     1      62.614  64.147  70.699  0.00  0.00    +0.000 C 
ATOM      2  N   UNL     1      63.125  64.586  70.223  0.00  0.00    +0.000 N 
ATOM      3  C   UNL     1      63.140  64.461  69.407  0.00  0.00    +0.000 C 
ATOM      4  C   UNL     1      63.621  65.151  70.562  0.00  0.00    +0.000 C 
ATOM      5  O   UNL     1      63.606  65.277  71.378  0.00  0.00    +0.000 OA
ATOM      6  O   UNL     1      64.133  65.590  70.087  0.00  0.00    +0.000 OA
ATOM      7  C   UNL     1      64.629  66.155  70.426  0.00  0.00    +0.000 C 
ATOM      8  C   UNL     1      65.140  66.594  69.951  0.00  0.00    +0.000 C 
ATOM      9  N   UNL     1      65.637  67.159  70.290  0.00  0.00    +0.000 N 
ATOM     10  C   UNL     1      66.148  67.597  69.815  0.00  0.00    +0.000 C 
ATOM     11  C   UNL     1      65.621  67.284  71.105  0.00  0.00    +0.000 C 
ATOM     12  C   UNL     1      65.110  66.845  71.581  0.00  0.00    +0.000 C 
ATOM     13  C   UNL     1      64.614  66.280  71.242  0.00  0.00    +0.000 C 
ENDROOT
TORSDOF 0
ENDMDL
MODEL 8
REMARK VINA RESULT:    -5.611      5.608      6.891
REMARK INTER + INTRA:          -5.611
REMARK INTER:                  -5.611
REMARK INTRA:                   0.000
REMARK UNBOUND:                 0.000
ROOT
REMARK  Name = pyridostigmine
REMARK                            x       y       z     vdW  Elec       q    Type
REMARK                         _______ _______ _______ _____ _____    ______ ____
ATOM      1  C   UNL     1      66.068  67.473  70.112  0.00  0.00    +0.000 C 
ATOM      2  N   UNL     1      65.517  67.119  70.614  0.00  0.00    +0.000 N 
ATOM      3  C   UNL     1      65.416  67.403  71.383  0.00  0.00    +0.000 C 
ATOM      4  C   UNL     1      65.066  66.482  70.348  0.00  0.00    +0.000 C 
ATOM      5  O   UNL     1      65.167  66.197  69.579  0.00  0.00    +0.000 OA
ATOM      6  O   UNL     1      64.515  66.127  70.850  0.00  0.00    +0.000 OA
ATOM      7  C   UNL     1      64.065  65.491  70.584  0.00  0.00    +0.000 C 
ATOM      8  C   UNL     1      63.513  65.136  71.085  0.00  0.00    +0.000 C 
ATOM      9  N   UNL     1      63.063  64.499  70.818  0.00  0.00    +0.000 N 
ATOM     10  C   UNL     1      62.512  64.145  71.320  0.00  0.00    +0.000 C 
ATOM     11  C   UNL     1      63.163  64.215  70.051  0.00  0.00    +0.000 C 
ATOM     12  C   UNL     1      63.715  64.568  69.549  0.00  0.00    +0.000 C 
ATOM     13  C   UNL     1      64.165  65.206  69.815  0.00  0.00    +0.000 C 
ENDROOT
TORSDOF 0
ENDMDL
MODEL 9
REMARK VINA RESULT:    -5.539      4.270      6.372
REMARK INTER + INTRA:          -5.539
REMARK INTER:                  -5.539
REMARK INTRA:                   0.000
REMARK UNBOUND:                 0.000
ROOT
REMARK  Name = pyridostigmine
REMARK                            x       y       z     vdW  Elec       q    Type
REMARK                         _______ _______ _______ _____ _____    ______ ____
ATOM      1  C   UNL     1      60.602  61.737  70.388  0.00  0.00    +0.000 C 
ATOM      2  N   UNL     1      60.507  62.517  70.136  0.00  0.00    +0.000 N 
ATOM      3  C   UNL     1      60.680  62.724  69.357  0.00  0.00    +0.000 C 
ATOM      4  C   UNL     1      60.239  63.091  70.665  0.00  0.00    +0.000 C 
ATOM      5  O   UNL     1      60.066  62.884  71.446  0.00  0.00    +0.000 OA
ATOM      6  O   UNL     1      60.144  63.872  70.414  0.00  0.00    +0.000 OA
ATOM      7  C   UNL     1      59.877  64.445  70.943  0.00  0.00    +0.000 C 
ATOM      8  C   UNL     1      59.782  65.225  70.692  0.00  0.00    +0.000 C 
ATOM      9  N   UNL     1      59.514  65.799  71.221  0.00  0.00    +0.000 N 
ATOM     10  C   UNL     1      59.419  66.578  70.970  0.00  0.00    +0.000 C 
ATOM     11  C   UNL     1      59.341  65.592  72.000  0.00  0.00    +0.000 C 
ATOM     12  C   UNL     1      59.435  64.812  72.252  0.00  0.00    +0.000 C 
ATOM     13  C   UNL     1      59.703  64.238  71.723  0.00  0.00    +0.000 C 
ENDROOT
TORSDOF 0
ENDMDL
