MODEL 1
REMARK VINA RESULT:   -18.984      0.000      0.000
REMARK INTER + INTRA:         -18.984
REMARK INTER:                 -18.984
REMARK INTRA:                   0.000
REMARK UNBOUND:                 0.000
ROOT
REMARK  Name = quinupristin
REMARK                            x       y       z     vdW  Elec       q    Type
REMARK                         _______ _______ _______ _____ _____    ______ ____
ATOM      1  C   UNL     1      58.930  67.964  49.177  0.00  0.00    +0.000 C 
ATOM      2  C   UNL     1      59.140  67.166  49.203  0.00  0.00    +0.000 C 
ATOM      3  C   UNL     1      59.573  66.875  49.842  0.00  0.00    +0.000 C 
ATOM      4  N   UNL     1      59.883  67.200  50.533  0.00  0.00    +0.000 NA
ATOM      5  C   UNL     1      60.299  66.725  51.063  0.00  0.00    +0.000 C 
ATOM      6  O   UNL     1      60.405  65.922  50.901  0.00  0.00    +0.000 OA
ATOM      7  C   UNL     1      60.609  67.050  51.755  0.00  0.00    +0.000 C 
ATOM      8  N   UNL     1      60.503  67.851  51.917  0.00  0.00    +0.000 NA
ATOM      9  C   UNL     1      60.087  68.329  51.387  0.00  0.00    +0.000 C 
ATOM     10  O   UNL     1      59.777  68.003  50.696  0.00  0.00    +0.000 OA
ATOM     11  C   UNL     1      59.981  69.130  51.549  0.00  0.00    +0.000 A 
ATOM     12  C   UNL     1      60.291  69.455  52.241  0.00  0.00    +0.000 A 
ATOM     13  O   UNL     1      60.707  68.980  52.771  0.00  0.00    +0.000 OA
ATOM     14  C   UNL     1      60.185  70.258  52.403  0.00  0.00    +0.000 A 
ATOM     15  C   UNL     1      59.769  70.734  51.873  0.00  0.00    +0.000 A 
ATOM     16  C   UNL     1      59.458  70.408  51.182  0.00  0.00    +0.000 A 
ATOM     17  N   UNL     1      59.564  69.607  51.020  0.00  0.00    +0.000 NA
ATOM     18  C   UNL     1      61.025  66.573  52.284  0.00  0.00    +0.000 C 
ATOM     19  C   UNL     1      61.131  65.772  52.122  0.00  0.00    +0.000 C 
ATOM     20  O   UNL     1      61.335  66.899  52.976  0.00  0.00    +0.000 OA
ATOM     21  C   UNL     1      61.796  66.409  53.578  0.00  0.00    +0.000 C 
ATOM     22  O   UNL     1      61.844  65.626  53.323  0.00  0.00    +0.000 OA
ATOM     23  C   UNL     1      62.184  66.491  54.302  0.00  0.00    +0.000 C 
ATOM     24  N   UNL     1      62.485  65.753  54.514  0.00  0.00    +0.000 NA
ATOM     25  C   UNL     1      62.283  65.215  53.922  0.00  0.00    +0.000 C 
ATOM     26  O   UNL     1      61.857  65.361  53.231  0.00  0.00    +0.000 OA
ATOM     27  C   UNL     1      62.380  64.342  53.711  0.00  0.00    +0.000 C 
ATOM     28  C   UNL     1      62.796  63.866  54.241  0.00  0.00    +0.000 C 
ATOM     29  C   UNL     1      62.902  63.063  54.079  0.00  0.00    +0.000 C 
ATOM     30  O   UNL     1      63.318  62.588  54.608  0.00  0.00    +0.000 OA
ATOM     31  C   UNL     1      62.592  62.738  53.387  0.00  0.00    +0.000 C 
ATOM     32  C   UNL     1      62.698  61.937  53.225  0.00  0.00    +0.000 C 
ATOM     33  S   UNL     1      63.113  61.460  53.754  0.00  0.00    +0.000 S 
ATOM     34  C   UNL     1      63.220  60.658  53.593  0.00  0.00    +0.000 C 
ATOM     35  C   UNL     1      62.910  60.333  52.901  0.00  0.00    +0.000 C 
ATOM     36  N   UNL     1      63.015  59.531  52.738  0.00  0.00    +0.000 NA
ATOM     37  C   UNL     1      63.432  59.054  53.268  0.00  0.00    +0.000 C 
ATOM     38  C   UNL     1      63.742  59.380  53.960  0.00  0.00    +0.000 C 
ATOM     39  C   UNL     1      63.636  60.182  54.122  0.00  0.00    +0.000 C 
ATOM     40  C   UNL     1      63.479  59.842  53.696  0.00  0.00    +0.000 C 
ATOM     41  C   UNL     1      63.273  59.624  53.235  0.00  0.00    +0.000 C 
ATOM     42  C   UNL     1      62.175  63.215  52.857  0.00  0.00    +0.000 C 
ATOM     43  N   UNL     1      62.069  64.016  53.019  0.00  0.00    +0.000 N 
ATOM     44  C   UNL     1      61.653  64.493  52.490  0.00  0.00    +0.000 C 
ATOM     45  O   UNL     1      61.547  65.295  52.652  0.00  0.00    +0.000 OA
ATOM     46  C   UNL     1      61.343  64.168  51.798  0.00  0.00    +0.000 C 
ATOM     47  C   UNL     1      61.449  63.365  51.636  0.00  0.00    +0.000 C 
ATOM     48  C   UNL     1      61.139  63.040  50.944  0.00  0.00    +0.000 A 
ATOM     49  C   UNL     1      60.723  63.517  50.415  0.00  0.00    +0.000 A 
ATOM     50  C   UNL     1      60.413  63.191  49.723  0.00  0.00    +0.000 A 
ATOM     51  C   UNL     1      60.519  62.389  49.561  0.00  0.00    +0.000 A 
ATOM     52  C   UNL     1      60.935  61.913  50.091  0.00  0.00    +0.000 A 
ATOM     53  C   UNL     1      61.245  62.238  50.782  0.00  0.00    +0.000 A 
ATOM     54  N   UNL     1      60.209  62.063  48.869  0.00  0.00    +0.000 N 
ATOM     55  C   UNL     1      60.315  61.262  48.707  0.00  0.00    +0.000 C 
ATOM     56  C   UNL     1      59.793  62.540  48.340  0.00  0.00    +0.000 C 
ATOM     57  N   UNL     1      60.927  64.644  51.268  0.00  0.00    +0.000 N 
ATOM     58  C   UNL     1      60.821  65.446  51.431  0.00  0.00    +0.000 C 
ATOM     59  C   UNL     1      60.617  64.318  50.577  0.00  0.00    +0.000 C 
ATOM     60  O   UNL     1      60.456  63.721  50.031  0.00  0.00    +0.000 OA
ATOM     61  C   UNL     1      60.201  64.795  50.047  0.00  0.00    +0.000 C 
ATOM     62  C   UNL     1      59.999  64.257  49.455  0.00  0.00    +0.000 C 
ATOM     63  C   UNL     1      59.573  64.663  48.876  0.00  0.00    +0.000 C 
ATOM     64  C   UNL     1      59.511  65.452  49.111  0.00  0.00    +0.000 C 
ATOM     65  N   UNL     1      59.899  65.533  49.835  0.00  0.00    +0.000 N 
ATOM     66  C   UNL     1      60.095  65.596  50.209  0.00  0.00    +0.000 C 
ATOM     67  O   UNL     1      60.523  65.210  50.799  0.00  0.00    +0.000 OA
ATOM     68  C   UNL     1      62.257  67.188  54.737  0.00  0.00    +0.000 A 
ATOM     69  C   UNL     1      62.663  67.185  55.455  0.00  0.00    +0.000 A 
ATOM     70  C   UNL     1      62.737  67.882  55.891  0.00  0.00    +0.000 A 
ATOM     71  C   UNL     1      62.405  68.582  55.606  0.00  0.00    +0.000 A 
ATOM     72  C   UNL     1      61.999  68.585  54.889  0.00  0.00    +0.000 A 
ATOM     73  C   UNL     1      61.925  67.888  54.454  0.00  0.00    +0.000 A 
ENDROOT
TORSDOF 0
ENDMDL
MODEL 2
REMARK VINA RESULT:   -18.661      1.371      2.219
REMARK INTER + INTRA:         -18.661
REMARK INTER:                 -18.661
REMARK INTRA:                   0.000
REMARK UNBOUND:                 0.000
ROOT
REMARK  Name = quinupristin
REMARK                            x       y       z     vdW  Elec       q    Type
REMARK                         _______ _______ _______ _____ _____    ______ ____
ATOM      1  C   UNL     1      58.472  70.341  51.233  0.00  0.00    +0.000 C 
ATOM      2  C   UNL     1      58.690  69.601  50.941  0.00  0.00    +0.000 C 
ATOM      3  C   UNL     1      59.205  69.123  51.373  0.00  0.00    +0.000 C 
ATOM      4  N   UNL     1      59.601  69.194  52.093  0.00  0.00    +0.000 NA
ATOM      5  C   UNL     1      60.087  68.583  52.359  0.00  0.00    +0.000 C 
ATOM      6  O   UNL     1      60.177  67.900  51.904  0.00  0.00    +0.000 OA
ATOM      7  C   UNL     1      60.483  68.654  53.079  0.00  0.00    +0.000 C 
ATOM      8  N   UNL     1      60.393  69.336  53.533  0.00  0.00    +0.000 NA
ATOM      9  C   UNL     1      59.907  69.948  53.268  0.00  0.00    +0.000 C 
ATOM     10  O   UNL     1      59.511  69.877  52.548  0.00  0.00    +0.000 OA
ATOM     11  C   UNL     1      59.818  70.630  53.722  0.00  0.00    +0.000 A 
ATOM     12  C   UNL     1      60.214  70.701  54.442  0.00  0.00    +0.000 A 
ATOM     13  O   UNL     1      60.700  70.090  54.708  0.00  0.00    +0.000 OA
ATOM     14  C   UNL     1      60.124  71.384  54.898  0.00  0.00    +0.000 A 
ATOM     15  C   UNL     1      59.638  71.995  54.632  0.00  0.00    +0.000 A 
ATOM     16  C   UNL     1      59.242  71.924  53.911  0.00  0.00    +0.000 A 
ATOM     17  N   UNL     1      59.332  71.242  53.457  0.00  0.00    +0.000 NA
ATOM     18  C   UNL     1      60.969  68.042  53.344  0.00  0.00    +0.000 C 
ATOM     19  C   UNL     1      61.059  67.360  52.890  0.00  0.00    +0.000 C 
ATOM     20  O   UNL     1      61.365  68.113  54.064  0.00  0.00    +0.000 OA
ATOM     21  C   UNL     1      61.905  67.465  54.387  0.00  0.00    +0.000 C 
ATOM     22  O   UNL     1      61.925  66.830  53.859  0.00  0.00    +0.000 OA
ATOM     23  C   UNL     1      62.384  67.302  55.038  0.00  0.00    +0.000 C 
ATOM     24  N   UNL     1      62.717  66.554  54.929  0.00  0.00    +0.000 NA
ATOM     25  C   UNL     1      62.442  66.256  54.210  0.00  0.00    +0.000 C 
ATOM     26  O   UNL     1      61.928  66.618  53.676  0.00  0.00    +0.000 OA
ATOM     27  C   UNL     1      62.516  65.524  53.686  0.00  0.00    +0.000 C 
ATOM     28  C   UNL     1      63.002  64.913  53.952  0.00  0.00    +0.000 C 
ATOM     29  C   UNL     1      63.092  64.230  53.497  0.00  0.00    +0.000 C 
ATOM     30  O   UNL     1      63.578  63.619  53.763  0.00  0.00    +0.000 OA
ATOM     31  C   UNL     1      62.696  64.159  52.776  0.00  0.00    +0.000 C 
ATOM     32  C   UNL     1      62.786  63.477  52.322  0.00  0.00    +0.000 C 
ATOM     33  S   UNL     1      63.271  62.866  52.587  0.00  0.00    +0.000 S 
ATOM     34  C   UNL     1      63.361  62.183  52.133  0.00  0.00    +0.000 C 
ATOM     35  C   UNL     1      62.965  62.112  51.413  0.00  0.00    +0.000 C 
ATOM     36  N   UNL     1      63.055  61.430  50.958  0.00  0.00    +0.000 NA
ATOM     37  C   UNL     1      63.541  60.818  51.224  0.00  0.00    +0.000 C 
ATOM     38  C   UNL     1      63.937  60.889  51.944  0.00  0.00    +0.000 C 
ATOM     39  C   UNL     1      63.847  61.572  52.398  0.00  0.00    +0.000 C 
ATOM     40  C   UNL     1      63.638  61.399  51.900  0.00  0.00    +0.000 C 
ATOM     41  C   UNL     1      63.374  61.352  51.420  0.00  0.00    +0.000 C 
ATOM     42  C   UNL     1      62.210  64.771  52.511  0.00  0.00    +0.000 C 
ATOM     43  N   UNL     1      62.120  65.453  52.966  0.00  0.00    +0.000 N 
ATOM     44  C   UNL     1      61.634  66.065  52.701  0.00  0.00    +0.000 C 
ATOM     45  O   UNL     1      61.545  66.747  53.155  0.00  0.00    +0.000 OA
ATOM     46  C   UNL     1      61.238  65.994  51.980  0.00  0.00    +0.000 C 
ATOM     47  C   UNL     1      61.328  65.311  51.525  0.00  0.00    +0.000 C 
ATOM     48  C   UNL     1      60.932  65.240  50.805  0.00  0.00    +0.000 A 
ATOM     49  C   UNL     1      60.446  65.853  50.540  0.00  0.00    +0.000 A 
ATOM     50  C   UNL     1      60.050  65.782  49.820  0.00  0.00    +0.000 A 
ATOM     51  C   UNL     1      60.139  65.099  49.365  0.00  0.00    +0.000 A 
ATOM     52  C   UNL     1      60.625  64.487  49.631  0.00  0.00    +0.000 A 
ATOM     53  C   UNL     1      61.022  64.558  50.351  0.00  0.00    +0.000 A 
ATOM     54  N   UNL     1      59.743  65.028  48.645  0.00  0.00    +0.000 N 
ATOM     55  C   UNL     1      59.833  64.346  48.190  0.00  0.00    +0.000 C 
ATOM     56  C   UNL     1      59.257  65.640  48.380  0.00  0.00    +0.000 C 
ATOM     57  N   UNL     1      60.752  66.606  51.714  0.00  0.00    +0.000 N 
ATOM     58  C   UNL     1      60.663  67.289  52.170  0.00  0.00    +0.000 C 
ATOM     59  C   UNL     1      60.356  66.535  50.994  0.00  0.00    +0.000 C 
ATOM     60  O   UNL     1      60.129  66.166  50.293  0.00  0.00    +0.000 OA
ATOM     61  C   UNL     1      59.870  67.147  50.729  0.00  0.00    +0.000 C 
ATOM     62  C   UNL     1      59.596  66.848  50.010  0.00  0.00    +0.000 C 
ATOM     63  C   UNL     1      59.094  67.411  49.675  0.00  0.00    +0.000 C 
ATOM     64  C   UNL     1      59.058  68.057  50.187  0.00  0.00    +0.000 C 
ATOM     65  N   UNL     1      59.538  67.894  50.838  0.00  0.00    +0.000 N 
ATOM     66  C   UNL     1      59.780  67.829  51.183  0.00  0.00    +0.000 C 
ATOM     67  O   UNL     1      60.285  67.280  51.536  0.00  0.00    +0.000 OA
ATOM     68  C   UNL     1      62.509  67.798  55.685  0.00  0.00    +0.000 A 
ATOM     69  C   UNL     1      63.007  67.559  56.298  0.00  0.00    +0.000 A 
ATOM     70  C   UNL     1      63.132  68.055  56.946  0.00  0.00    +0.000 A 
ATOM     71  C   UNL     1      62.760  68.791  56.978  0.00  0.00    +0.000 A 
ATOM     72  C   UNL     1      62.263  69.030  56.365  0.00  0.00    +0.000 A 
ATOM     73  C   UNL     1      62.138  68.533  55.718  0.00  0.00    +0.000 A 
ENDROOT
TORSDOF 0
ENDMDL
MODEL 3
REMARK VINA RESULT:   -18.343      1.526      5.885
REMARK INTER + INTRA:         -18.343
REMARK INTER:                 -18.343
REMARK INTRA:                   0.000
REMARK UNBOUND:                 0.000
ROOT
REMARK  Name = quinupristin
REMARK                            x       y       z     vdW  Elec       q    Type
REMARK                         _______ _______ _______ _____ _____    ______ ____
ATOM      1  C   UNL     1      59.783  62.562  48.104  0.00  0.00    +0.000 C 
ATOM      2  C   UNL     1      59.723  63.325  48.413  0.00  0.00    +0.000 C 
ATOM      3  C   UNL     1      60.129  63.524  49.102  0.00  0.00    +0.000 C 
ATOM      4  N   UNL     1      60.631  63.124  49.620  0.00  0.00    +0.000 NA
ATOM      5  C   UNL     1      60.945  63.514  50.275  0.00  0.00    +0.000 C 
ATOM      6  O   UNL     1      60.756  64.306  50.413  0.00  0.00    +0.000 OA
ATOM      7  C   UNL     1      61.447  63.113  50.793  0.00  0.00    +0.000 C 
ATOM      8  N   UNL     1      61.635  62.322  50.655  0.00  0.00    +0.000 NA
ATOM      9  C   UNL     1      61.322  61.931  50.000  0.00  0.00    +0.000 C 
ATOM     10  O   UNL     1      60.820  62.332  49.482  0.00  0.00    +0.000 OA
ATOM     11  C   UNL     1      61.510  61.140  49.862  0.00  0.00    +0.000 A 
ATOM     12  C   UNL     1      62.012  60.740  50.379  0.00  0.00    +0.000 A 
ATOM     13  O   UNL     1      62.326  61.130  51.035  0.00  0.00    +0.000 OA
ATOM     14  C   UNL     1      62.201  59.948  50.241  0.00  0.00    +0.000 A 
ATOM     15  C   UNL     1      61.887  59.558  49.586  0.00  0.00    +0.000 A 
ATOM     16  C   UNL     1      61.385  59.958  49.068  0.00  0.00    +0.000 A 
ATOM     17  N   UNL     1      61.197  60.749  49.206  0.00  0.00    +0.000 NA
ATOM     18  C   UNL     1      61.761  63.504  51.448  0.00  0.00    +0.000 C 
ATOM     19  C   UNL     1      61.572  64.295  51.586  0.00  0.00    +0.000 C 
ATOM     20  O   UNL     1      62.263  63.104  51.966  0.00  0.00    +0.000 OA
ATOM     21  C   UNL     1      62.625  63.498  52.693  0.00  0.00    +0.000 C 
ATOM     22  O   UNL     1      62.374  64.283  52.738  0.00  0.00    +0.000 OA
ATOM     23  C   UNL     1      63.125  63.327  53.327  0.00  0.00    +0.000 C 
ATOM     24  N   UNL     1      63.197  64.010  53.785  0.00  0.00    +0.000 NA
ATOM     25  C   UNL     1      62.742  64.602  53.434  0.00  0.00    +0.000 C 
ATOM     26  O   UNL     1      62.286  64.549  52.748  0.00  0.00    +0.000 OA
ATOM     27  C   UNL     1      62.513  65.468  53.553  0.00  0.00    +0.000 C 
ATOM     28  C   UNL     1      62.827  65.858  54.208  0.00  0.00    +0.000 C 
ATOM     29  C   UNL     1      62.638  66.649  54.346  0.00  0.00    +0.000 C 
ATOM     30  O   UNL     1      62.952  67.039  55.002  0.00  0.00    +0.000 OA
ATOM     31  C   UNL     1      62.136  67.050  53.828  0.00  0.00    +0.000 C 
ATOM     32  C   UNL     1      61.948  67.841  53.966  0.00  0.00    +0.000 C 
ATOM     33  S   UNL     1      62.261  68.231  54.621  0.00  0.00    +0.000 S 
ATOM     34  C   UNL     1      62.073  69.023  54.760  0.00  0.00    +0.000 C 
ATOM     35  C   UNL     1      61.571  69.423  54.242  0.00  0.00    +0.000 C 
ATOM     36  N   UNL     1      61.382  70.214  54.379  0.00  0.00    +0.000 NA
ATOM     37  C   UNL     1      61.696  70.605  55.035  0.00  0.00    +0.000 C 
ATOM     38  C   UNL     1      62.198  70.205  55.553  0.00  0.00    +0.000 C 
ATOM     39  C   UNL     1      62.386  69.413  55.415  0.00  0.00    +0.000 C 
ATOM     40  C   UNL     1      62.064  69.794  55.146  0.00  0.00    +0.000 C 
ATOM     41  C   UNL     1      61.729  70.061  54.801  0.00  0.00    +0.000 C 
ATOM     42  C   UNL     1      61.823  66.659  53.173  0.00  0.00    +0.000 C 
ATOM     43  N   UNL     1      62.011  65.868  53.035  0.00  0.00    +0.000 N 
ATOM     44  C   UNL     1      61.698  65.477  52.380  0.00  0.00    +0.000 C 
ATOM     45  O   UNL     1      61.886  64.686  52.242  0.00  0.00    +0.000 OA
ATOM     46  C   UNL     1      61.195  65.877  51.862  0.00  0.00    +0.000 C 
ATOM     47  C   UNL     1      61.007  66.669  52.000  0.00  0.00    +0.000 C 
ATOM     48  C   UNL     1      60.504  67.070  51.482  0.00  0.00    +0.000 A 
ATOM     49  C   UNL     1      60.191  66.679  50.827  0.00  0.00    +0.000 A 
ATOM     50  C   UNL     1      59.689  67.079  50.309  0.00  0.00    +0.000 A 
ATOM     51  C   UNL     1      59.500  67.871  50.447  0.00  0.00    +0.000 A 
ATOM     52  C   UNL     1      59.814  68.261  51.102  0.00  0.00    +0.000 A 
ATOM     53  C   UNL     1      60.316  67.861  51.620  0.00  0.00    +0.000 A 
ATOM     54  N   UNL     1      58.998  68.272  49.929  0.00  0.00    +0.000 N 
ATOM     55  C   UNL     1      58.810  69.063  50.067  0.00  0.00    +0.000 C 
ATOM     56  C   UNL     1      58.684  67.881  49.274  0.00  0.00    +0.000 C 
ATOM     57  N   UNL     1      60.881  65.487  51.206  0.00  0.00    +0.000 N 
ATOM     58  C   UNL     1      61.070  64.696  51.069  0.00  0.00    +0.000 C 
ATOM     59  C   UNL     1      60.379  65.888  50.689  0.00  0.00    +0.000 C 
ATOM     60  O   UNL     1      59.950  66.531  50.402  0.00  0.00    +0.000 OA
ATOM     61  C   UNL     1      60.066  65.497  50.033  0.00  0.00    +0.000 C 
ATOM     62  C   UNL     1      59.610  66.089  49.682  0.00  0.00    +0.000 C 
ATOM     63  C   UNL     1      59.257  65.773  49.008  0.00  0.00    +0.000 C 
ATOM     64  C   UNL     1      59.493  64.985  48.941  0.00  0.00    +0.000 C 
ATOM     65  N   UNL     1      59.994  64.814  49.575  0.00  0.00    +0.000 N 
ATOM     66  C   UNL     1      60.254  64.706  49.895  0.00  0.00    +0.000 C 
ATOM     67  O   UNL     1      60.618  65.003  50.574  0.00  0.00    +0.000 OA
ATOM     68  C   UNL     1      63.488  62.602  53.476  0.00  0.00    +0.000 A 
ATOM     69  C   UNL     1      63.977  62.514  54.136  0.00  0.00    +0.000 A 
ATOM     70  C   UNL     1      64.341  61.788  54.286  0.00  0.00    +0.000 A 
ATOM     71  C   UNL     1      64.216  61.152  53.775  0.00  0.00    +0.000 A 
ATOM     72  C   UNL     1      63.728  61.240  53.117  0.00  0.00    +0.000 A 
ATOM     73  C   UNL     1      63.364  61.966  52.967  0.00  0.00    +0.000 A 
ENDROOT
TORSDOF 0
ENDMDL
MODEL 4
REMARK VINA RESULT:   -17.862      2.450      7.223
REMARK INTER + INTRA:         -17.862
REMARK INTER:                 -17.862
REMARK INTRA:                   0.000
REMARK UNBOUND:                 0.000
ROOT
REMARK  Name = quinupristin
REMARK                            x       y       z     vdW  Elec       q    Type
REMARK                         _______ _______ _______ _____ _____    ______ ____
ATOM      1  C   UNL     1      61.240  64.641  50.471  0.00  0.00    +0.000 C 
ATOM      2  C   UNL     1      60.819  65.332  50.310  0.00  0.00    +0.000 C 
ATOM      3  C   UNL     1      60.814  65.948  50.858  0.00  0.00    +0.000 C 
ATOM      4  N   UNL     1      61.152  66.072  51.600  0.00  0.00    +0.000 NA
ATOM      5  C   UNL     1      61.023  66.781  52.000  0.00  0.00    +0.000 C 
ATOM      6  O   UNL     1      60.555  67.369  51.657  0.00  0.00    +0.000 OA
ATOM      7  C   UNL     1      61.361  66.905  52.743  0.00  0.00    +0.000 C 
ATOM      8  N   UNL     1      61.829  66.319  53.085  0.00  0.00    +0.000 NA
ATOM      9  C   UNL     1      61.959  65.608  52.686  0.00  0.00    +0.000 C 
ATOM     10  O   UNL     1      61.621  65.485  51.944  0.00  0.00    +0.000 OA
ATOM     11  C   UNL     1      62.426  65.022  53.028  0.00  0.00    +0.000 A 
ATOM     12  C   UNL     1      62.764  65.145  53.771  0.00  0.00    +0.000 A 
ATOM     13  O   UNL     1      62.635  65.855  54.171  0.00  0.00    +0.000 OA
ATOM     14  C   UNL     1      63.233  64.558  54.114  0.00  0.00    +0.000 A 
ATOM     15  C   UNL     1      63.362  63.848  53.714  0.00  0.00    +0.000 A 
ATOM     16  C   UNL     1      63.024  63.725  52.972  0.00  0.00    +0.000 A 
ATOM     17  N   UNL     1      62.556  64.311  52.629  0.00  0.00    +0.000 NA
ATOM     18  C   UNL     1      61.231  67.615  53.142  0.00  0.00    +0.000 C 
ATOM     19  C   UNL     1      60.764  68.202  52.799  0.00  0.00    +0.000 C 
ATOM     20  O   UNL     1      61.569  67.739  53.884  0.00  0.00    +0.000 OA
ATOM     21  C   UNL     1      61.450  68.502  54.350  0.00  0.00    +0.000 C 
ATOM     22  O   UNL     1      60.970  69.019  53.922  0.00  0.00    +0.000 OA
ATOM     23  C   UNL     1      61.665  68.851  55.067  0.00  0.00    +0.000 C 
ATOM     24  N   UNL     1      61.320  69.600  55.099  0.00  0.00    +0.000 NA
ATOM     25  C   UNL     1      60.892  69.714  54.403  0.00  0.00    +0.000 C 
ATOM     26  O   UNL     1      60.806  69.190  53.771  0.00  0.00    +0.000 OA
ATOM     27  C   UNL     1      60.374  70.333  53.997  0.00  0.00    +0.000 C 
ATOM     28  C   UNL     1      60.245  71.042  54.397  0.00  0.00    +0.000 C 
ATOM     29  C   UNL     1      59.777  71.629  54.054  0.00  0.00    +0.000 C 
ATOM     30  O   UNL     1      59.648  72.339  54.453  0.00  0.00    +0.000 OA
ATOM     31  C   UNL     1      59.439  71.506  53.311  0.00  0.00    +0.000 C 
ATOM     32  C   UNL     1      58.971  72.092  52.969  0.00  0.00    +0.000 C 
ATOM     33  S   UNL     1      58.841  72.802  53.368  0.00  0.00    +0.000 S 
ATOM     34  C   UNL     1      58.374  73.389  53.025  0.00  0.00    +0.000 C 
ATOM     35  C   UNL     1      58.035  73.266  52.283  0.00  0.00    +0.000 C 
ATOM     36  N   UNL     1      57.568  73.852  51.940  0.00  0.00    +0.000 NA
ATOM     37  C   UNL     1      57.438  74.563  52.340  0.00  0.00    +0.000 C 
ATOM     38  C   UNL     1      57.776  74.686  53.082  0.00  0.00    +0.000 C 
ATOM     39  C   UNL     1      58.244  74.099  53.424  0.00  0.00    +0.000 C 
ATOM     40  C   UNL     1      57.961  74.142  52.935  0.00  0.00    +0.000 C 
ATOM     41  C   UNL     1      57.735  74.059  52.440  0.00  0.00    +0.000 C 
ATOM     42  C   UNL     1      59.569  70.795  52.912  0.00  0.00    +0.000 C 
ATOM     43  N   UNL     1      60.036  70.209  53.255  0.00  0.00    +0.000 N 
ATOM     44  C   UNL     1      60.166  69.499  52.856  0.00  0.00    +0.000 C 
ATOM     45  O   UNL     1      60.634  68.912  53.198  0.00  0.00    +0.000 OA
ATOM     46  C   UNL     1      59.828  69.375  52.113  0.00  0.00    +0.000 C 
ATOM     47  C   UNL     1      59.360  69.962  51.770  0.00  0.00    +0.000 C 
ATOM     48  C   UNL     1      59.022  69.839  51.028  0.00  0.00    +0.000 A 
ATOM     49  C   UNL     1      59.152  69.128  50.629  0.00  0.00    +0.000 A 
ATOM     50  C   UNL     1      58.814  69.005  49.886  0.00  0.00    +0.000 A 
ATOM     51  C   UNL     1      58.345  69.592  49.543  0.00  0.00    +0.000 A 
ATOM     52  C   UNL     1      58.216  70.302  49.943  0.00  0.00    +0.000 A 
ATOM     53  C   UNL     1      58.554  70.425  50.685  0.00  0.00    +0.000 A 
ATOM     54  N   UNL     1      58.007  69.468  48.801  0.00  0.00    +0.000 N 
ATOM     55  C   UNL     1      57.540  70.055  48.458  0.00  0.00    +0.000 C 
ATOM     56  C   UNL     1      58.137  68.758  48.402  0.00  0.00    +0.000 C 
ATOM     57  N   UNL     1      59.957  68.665  51.713  0.00  0.00    +0.000 N 
ATOM     58  C   UNL     1      60.426  68.078  52.057  0.00  0.00    +0.000 C 
ATOM     59  C   UNL     1      59.619  68.542  50.971  0.00  0.00    +0.000 C 
ATOM     60  O   UNL     1      59.170  68.733  50.307  0.00  0.00    +0.000 OA
ATOM     61  C   UNL     1      59.749  67.831  50.572  0.00  0.00    +0.000 C 
ATOM     62  C   UNL     1      59.321  67.945  49.876  0.00  0.00    +0.000 C 
ATOM     63  C   UNL     1      59.401  67.268  49.413  0.00  0.00    +0.000 C 
ATOM     64  C   UNL     1      59.879  66.734  49.823  0.00  0.00    +0.000 C 
ATOM     65  N   UNL     1      60.094  67.083  50.539  0.00  0.00    +0.000 N 
ATOM     66  C   UNL     1      60.217  67.245  50.915  0.00  0.00    +0.000 C 
ATOM     67  O   UNL     1      60.149  67.914  51.393  0.00  0.00    +0.000 OA
ATOM     68  C   UNL     1      62.141  68.511  55.648  0.00  0.00    +0.000 A 
ATOM     69  C   UNL     1      62.310  68.928  56.339  0.00  0.00    +0.000 A 
ATOM     70  C   UNL     1      62.786  68.588  56.921  0.00  0.00    +0.000 A 
ATOM     71  C   UNL     1      63.094  67.830  56.811  0.00  0.00    +0.000 A 
ATOM     72  C   UNL     1      62.926  67.413  56.120  0.00  0.00    +0.000 A 
ATOM     73  C   UNL     1      62.449  67.754  55.538  0.00  0.00    +0.000 A 
ENDROOT
TORSDOF 0
ENDMDL
MODEL 5
REMARK VINA RESULT:   -17.044      1.767      7.489
REMARK INTER + INTRA:         -17.044
REMARK INTER:                 -17.044
REMARK INTRA:                   0.000
REMARK UNBOUND:                 0.000
ROOT
REMARK  Name = quinupristin
REMARK                            x       y       z     vdW  Elec       q    Type
REMARK                         _______ _______ _______ _____ _____    ______ ____
ATOM      1  C   UNL     1      62.753  63.018  54.421  0.00  0.00    +0.000 C 
ATOM      2  C   UNL     1      62.697  63.837  54.341  0.00  0.00    +0.000 C 
ATOM      3  C   UNL     1      62.263  64.162  53.720  0.00  0.00    +0.000 C 
ATOM      4  N   UNL     1      61.825  63.855  53.092  0.00  0.00    +0.000 NA
ATOM      5  C   UNL     1      61.454  64.364  52.560  0.00  0.00    +0.000 C 
ATOM      6  O   UNL     1      61.521  65.182  52.656  0.00  0.00    +0.000 OA
ATOM      7  C   UNL     1      61.015  64.058  51.931  0.00  0.00    +0.000 C 
ATOM      8  N   UNL     1      60.948  63.242  51.835  0.00  0.00    +0.000 NA
ATOM      9  C   UNL     1      61.319  62.731  52.367  0.00  0.00    +0.000 C 
ATOM     10  O   UNL     1      61.758  63.038  52.995  0.00  0.00    +0.000 OA
ATOM     11  C   UNL     1      61.252  61.915  52.271  0.00  0.00    +0.000 A 
ATOM     12  C   UNL     1      60.814  61.608  51.643  0.00  0.00    +0.000 A 
ATOM     13  O   UNL     1      60.443  62.118  51.111  0.00  0.00    +0.000 OA
ATOM     14  C   UNL     1      60.747  60.791  51.547  0.00  0.00    +0.000 A 
ATOM     15  C   UNL     1      61.118  60.282  52.079  0.00  0.00    +0.000 A 
ATOM     16  C   UNL     1      61.556  60.589  52.707  0.00  0.00    +0.000 A 
ATOM     17  N   UNL     1      61.623  61.405  52.803  0.00  0.00    +0.000 NA
ATOM     18  C   UNL     1      60.645  64.568  51.400  0.00  0.00    +0.000 C 
ATOM     19  C   UNL     1      60.712  65.384  51.496  0.00  0.00    +0.000 C 
ATOM     20  O   UNL     1      60.206  64.262  50.772  0.00  0.00    +0.000 OA
ATOM     21  C   UNL     1      59.787  64.788  50.170  0.00  0.00    +0.000 C 
ATOM     22  O   UNL     1      59.916  65.582  50.356  0.00  0.00    +0.000 OA
ATOM     23  C   UNL     1      59.316  64.733  49.495  0.00  0.00    +0.000 C 
ATOM     24  N   UNL     1      59.140  65.499  49.244  0.00  0.00    +0.000 NA
ATOM     25  C   UNL     1      59.503  66.027  49.763  0.00  0.00    +0.000 C 
ATOM     26  O   UNL     1      59.964  65.850  50.424  0.00  0.00    +0.000 OA
ATOM     27  C   UNL     1      59.598  66.915  49.900  0.00  0.00    +0.000 C 
ATOM     28  C   UNL     1      59.227  67.424  49.368  0.00  0.00    +0.000 C 
ATOM     29  C   UNL     1      59.294  68.241  49.465  0.00  0.00    +0.000 C 
ATOM     30  O   UNL     1      58.923  68.751  48.933  0.00  0.00    +0.000 OA
ATOM     31  C   UNL     1      59.733  68.548  50.093  0.00  0.00    +0.000 C 
ATOM     32  C   UNL     1      59.800  69.364  50.189  0.00  0.00    +0.000 C 
ATOM     33  S   UNL     1      59.429  69.874  49.657  0.00  0.00    +0.000 S 
ATOM     34  C   UNL     1      59.496  70.691  49.753  0.00  0.00    +0.000 C 
ATOM     35  C   UNL     1      59.934  70.997  50.381  0.00  0.00    +0.000 C 
ATOM     36  N   UNL     1      60.002  71.814  50.478  0.00  0.00    +0.000 NA
ATOM     37  C   UNL     1      59.630  72.324  49.945  0.00  0.00    +0.000 C 
ATOM     38  C   UNL     1      59.192  72.017  49.317  0.00  0.00    +0.000 C 
ATOM     39  C   UNL     1      59.125  71.200  49.222  0.00  0.00    +0.000 C 
ATOM     40  C   UNL     1      59.388  71.533  49.598  0.00  0.00    +0.000 C 
ATOM     41  C   UNL     1      59.680  71.737  50.017  0.00  0.00    +0.000 C 
ATOM     42  C   UNL     1      60.104  68.037  50.624  0.00  0.00    +0.000 C 
ATOM     43  N   UNL     1      60.037  67.221  50.528  0.00  0.00    +0.000 N 
ATOM     44  C   UNL     1      60.408  66.711  51.060  0.00  0.00    +0.000 C 
ATOM     45  O   UNL     1      60.341  65.895  50.964  0.00  0.00    +0.000 OA
ATOM     46  C   UNL     1      60.846  67.018  51.688  0.00  0.00    +0.000 C 
ATOM     47  C   UNL     1      60.913  67.835  51.785  0.00  0.00    +0.000 C 
ATOM     48  C   UNL     1      61.351  68.142  52.413  0.00  0.00    +0.000 A 
ATOM     49  C   UNL     1      61.722  67.631  52.944  0.00  0.00    +0.000 A 
ATOM     50  C   UNL     1      62.161  67.938  53.572  0.00  0.00    +0.000 A 
ATOM     51  C   UNL     1      62.228  68.755  53.669  0.00  0.00    +0.000 A 
ATOM     52  C   UNL     1      61.857  69.264  53.137  0.00  0.00    +0.000 A 
ATOM     53  C   UNL     1      61.418  68.958  52.509  0.00  0.00    +0.000 A 
ATOM     54  N   UNL     1      62.666  69.062  54.297  0.00  0.00    +0.000 N 
ATOM     55  C   UNL     1      62.733  69.878  54.393  0.00  0.00    +0.000 C 
ATOM     56  C   UNL     1      63.037  68.551  54.829  0.00  0.00    +0.000 C 
ATOM     57  N   UNL     1      61.217  66.508  52.220  0.00  0.00    +0.000 N 
ATOM     58  C   UNL     1      61.150  65.691  52.124  0.00  0.00    +0.000 C 
ATOM     59  C   UNL     1      61.655  66.815  52.848  0.00  0.00    +0.000 C 
ATOM     60  O   UNL     1      61.984  67.406  53.319  0.00  0.00    +0.000 OA
ATOM     61  C   UNL     1      62.026  66.304  53.380  0.00  0.00    +0.000 C 
ATOM     62  C   UNL     1      62.389  66.833  53.900  0.00  0.00    +0.000 C 
ATOM     63  C   UNL     1      62.789  66.394  54.473  0.00  0.00    +0.000 C 
ATOM     64  C   UNL     1      62.673  65.594  54.307  0.00  0.00    +0.000 C 
ATOM     65  N   UNL     1      62.202  65.538  53.632  0.00  0.00    +0.000 N 
ATOM     66  C   UNL     1      61.959  65.488  53.284  0.00  0.00    +0.000 C 
ATOM     67  O   UNL     1      61.553  65.909  52.702  0.00  0.00    +0.000 OA
ATOM     68  C   UNL     1      59.064  64.034  49.135  0.00  0.00    +0.000 A 
ATOM     69  C   UNL     1      58.592  64.066  48.459  0.00  0.00    +0.000 A 
ATOM     70  C   UNL     1      58.341  63.368  48.098  0.00  0.00    +0.000 A 
ATOM     71  C   UNL     1      58.561  62.638  48.415  0.00  0.00    +0.000 A 
ATOM     72  C   UNL     1      59.033  62.607  49.090  0.00  0.00    +0.000 A 
ATOM     73  C   UNL     1      59.284  63.305  49.451  0.00  0.00    +0.000 A 
ENDROOT
TORSDOF 0
ENDMDL
MODEL 6
REMARK VINA RESULT:   -16.821      2.064      7.581
REMARK INTER + INTRA:         -16.821
REMARK INTER:                 -16.821
REMARK INTRA:                   0.000
REMARK UNBOUND:                 0.000
ROOT
REMARK  Name = quinupristin
REMARK                            x       y       z     vdW  Elec       q    Type
REMARK                         _______ _______ _______ _____ _____    ______ ____
ATOM      1  C   UNL     1      63.640  63.463  53.421  0.00  0.00    +0.000 C 
ATOM      2  C   UNL     1      63.468  64.169  53.812  0.00  0.00    +0.000 C 
ATOM      3  C   UNL     1      62.960  64.719  53.467  0.00  0.00    +0.000 C 
ATOM      4  N   UNL     1      62.534  64.756  52.761  0.00  0.00    +0.000 NA
ATOM      5  C   UNL     1      62.067  65.415  52.595  0.00  0.00    +0.000 C 
ATOM      6  O   UNL     1      62.027  66.038  53.135  0.00  0.00    +0.000 OA
ATOM      7  C   UNL     1      61.640  65.452  51.890  0.00  0.00    +0.000 C 
ATOM      8  N   UNL     1      61.681  64.830  51.351  0.00  0.00    +0.000 NA
ATOM      9  C   UNL     1      62.147  64.170  51.516  0.00  0.00    +0.000 C 
ATOM     10  O   UNL     1      62.574  64.133  52.221  0.00  0.00    +0.000 OA
ATOM     11  C   UNL     1      62.188  63.547  50.977  0.00  0.00    +0.000 A 
ATOM     12  C   UNL     1      61.761  63.585  50.271  0.00  0.00    +0.000 A 
ATOM     13  O   UNL     1      61.294  64.244  50.105  0.00  0.00    +0.000 OA
ATOM     14  C   UNL     1      61.801  62.961  49.731  0.00  0.00    +0.000 A 
ATOM     15  C   UNL     1      62.268  62.302  49.897  0.00  0.00    +0.000 A 
ATOM     16  C   UNL     1      62.695  62.265  50.603  0.00  0.00    +0.000 A 
ATOM     17  N   UNL     1      62.654  62.887  51.142  0.00  0.00    +0.000 NA
ATOM     18  C   UNL     1      61.174  66.113  51.725  0.00  0.00    +0.000 C 
ATOM     19  C   UNL     1      61.133  66.735  52.264  0.00  0.00    +0.000 C 
ATOM     20  O   UNL     1      60.747  66.150  51.020  0.00  0.00    +0.000 OA
ATOM     21  C   UNL     1      60.227  66.855  50.804  0.00  0.00    +0.000 C 
ATOM     22  O   UNL     1      60.256  67.418  51.407  0.00  0.00    +0.000 OA
ATOM     23  C   UNL     1      59.730  67.119  50.200  0.00  0.00    +0.000 C 
ATOM     24  N   UNL     1      59.438  67.859  50.416  0.00  0.00    +0.000 NA
ATOM     25  C   UNL     1      59.753  68.053  51.154  0.00  0.00    +0.000 C 
ATOM     26  O   UNL     1      60.270  67.606  51.615  0.00  0.00    +0.000 OA
ATOM     27  C   UNL     1      59.733  68.715  51.768  0.00  0.00    +0.000 C 
ATOM     28  C   UNL     1      59.267  69.374  51.602  0.00  0.00    +0.000 C 
ATOM     29  C   UNL     1      59.226  69.998  52.142  0.00  0.00    +0.000 C 
ATOM     30  O   UNL     1      58.760  70.657  51.976  0.00  0.00    +0.000 OA
ATOM     31  C   UNL     1      59.653  69.960  52.847  0.00  0.00    +0.000 C 
ATOM     32  C   UNL     1      59.613  70.583  53.386  0.00  0.00    +0.000 C 
ATOM     33  S   UNL     1      59.146  71.242  53.221  0.00  0.00    +0.000 S 
ATOM     34  C   UNL     1      59.106  71.865  53.761  0.00  0.00    +0.000 C 
ATOM     35  C   UNL     1      59.532  71.828  54.466  0.00  0.00    +0.000 C 
ATOM     36  N   UNL     1      59.492  72.450  55.006  0.00  0.00    +0.000 NA
ATOM     37  C   UNL     1      59.025  73.111  54.840  0.00  0.00    +0.000 C 
ATOM     38  C   UNL     1      58.599  73.148  54.135  0.00  0.00    +0.000 C 
ATOM     39  C   UNL     1      58.639  72.525  53.595  0.00  0.00    +0.000 C 
ATOM     40  C   UNL     1      58.875  72.624  54.102  0.00  0.00    +0.000 C 
ATOM     41  C   UNL     1      59.159  72.599  54.572  0.00  0.00    +0.000 C 
ATOM     42  C   UNL     1      60.120  69.300  53.012  0.00  0.00    +0.000 C 
ATOM     43  N   UNL     1      60.160  68.678  52.473  0.00  0.00    +0.000 N 
ATOM     44  C   UNL     1      60.626  68.018  52.638  0.00  0.00    +0.000 C 
ATOM     45  O   UNL     1      60.667  67.395  52.099  0.00  0.00    +0.000 OA
ATOM     46  C   UNL     1      61.053  67.980  53.343  0.00  0.00    +0.000 C 
ATOM     47  C   UNL     1      61.013  68.603  53.884  0.00  0.00    +0.000 C 
ATOM     48  C   UNL     1      61.439  68.566  54.589  0.00  0.00    +0.000 A 
ATOM     49  C   UNL     1      61.906  67.906  54.754  0.00  0.00    +0.000 A 
ATOM     50  C   UNL     1      62.332  67.869  55.459  0.00  0.00    +0.000 A 
ATOM     51  C   UNL     1      62.292  68.492  55.999  0.00  0.00    +0.000 A 
ATOM     52  C   UNL     1      61.825  69.151  55.833  0.00  0.00    +0.000 A 
ATOM     53  C   UNL     1      61.399  69.189  55.128  0.00  0.00    +0.000 A 
ATOM     54  N   UNL     1      62.719  68.455  56.705  0.00  0.00    +0.000 N 
ATOM     55  C   UNL     1      62.678  69.077  57.244  0.00  0.00    +0.000 C 
ATOM     56  C   UNL     1      63.185  67.795  56.870  0.00  0.00    +0.000 C 
ATOM     57  N   UNL     1      61.520  67.321  53.510  0.00  0.00    +0.000 N 
ATOM     58  C   UNL     1      61.560  66.698  52.969  0.00  0.00    +0.000 C 
ATOM     59  C   UNL     1      61.946  67.284  54.215  0.00  0.00    +0.000 C 
ATOM     60  O   UNL     1      62.217  67.550  54.946  0.00  0.00    +0.000 OA
ATOM     61  C   UNL     1      62.413  66.623  54.380  0.00  0.00    +0.000 C 
ATOM     62  C   UNL     1      62.728  66.817  55.118  0.00  0.00    +0.000 C 
ATOM     63  C   UNL     1      63.215  66.196  55.358  0.00  0.00    +0.000 C 
ATOM     64  C   UNL     1      63.202  65.619  54.768  0.00  0.00    +0.000 C 
ATOM     65  N   UNL     1      62.705  65.883  54.164  0.00  0.00    +0.000 N 
ATOM     66  C   UNL     1      62.453  66.001  53.841  0.00  0.00    +0.000 C 
ATOM     67  O   UNL     1      61.961  66.611  53.582  0.00  0.00    +0.000 OA
ATOM     68  C   UNL     1      59.558  66.714  49.503  0.00  0.00    +0.000 A 
ATOM     69  C   UNL     1      59.049  67.049  48.946  0.00  0.00    +0.000 A 
ATOM     70  C   UNL     1      58.876  66.644  48.248  0.00  0.00    +0.000 A 
ATOM     71  C   UNL     1      59.212  65.903  48.108  0.00  0.00    +0.000 A 
ATOM     72  C   UNL     1      59.720  65.569  48.664  0.00  0.00    +0.000 A 
ATOM     73  C   UNL     1      59.893  65.974  49.362  0.00  0.00    +0.000 A 
ENDROOT
TORSDOF 0
ENDMDL
MODEL 7
REMARK VINA RESULT:   -16.594      1.764      7.492
REMARK INTER + INTRA:         -16.594
REMARK INTER:                 -16.594
REMARK INTRA:                   0.000
REMARK UNBOUND:                 0.000
ROOT
REMARK  Name = quinupristin
REMARK                            x       y       z     vdW  Elec       q    Type
REMARK                         _______ _______ _______ _____ _____    ______ ____
ATOM      1  C   UNL     1      64.095  61.271  54.187  0.00  0.00    +0.000 C 
ATOM      2  C   UNL     1      63.792  62.034  54.103  0.00  0.00    +0.000 C 
ATOM      3  C   UNL     1      63.205  62.184  53.543  0.00  0.00    +0.000 C 
ATOM      4  N   UNL     1      62.798  61.729  52.988  0.00  0.00    +0.000 NA
ATOM      5  C   UNL     1      62.228  62.079  52.505  0.00  0.00    +0.000 C 
ATOM      6  O   UNL     1      62.065  62.886  52.578  0.00  0.00    +0.000 OA
ATOM      7  C   UNL     1      61.821  61.625  51.950  0.00  0.00    +0.000 C 
ATOM      8  N   UNL     1      61.984  60.820  51.877  0.00  0.00    +0.000 NA
ATOM      9  C   UNL     1      62.554  60.468  52.360  0.00  0.00    +0.000 C 
ATOM     10  O   UNL     1      62.961  60.923  52.915  0.00  0.00    +0.000 OA
ATOM     11  C   UNL     1      62.717  59.664  52.287  0.00  0.00    +0.000 A 
ATOM     12  C   UNL     1      62.310  59.209  51.732  0.00  0.00    +0.000 A 
ATOM     13  O   UNL     1      61.740  59.559  51.249  0.00  0.00    +0.000 OA
ATOM     14  C   UNL     1      62.473  58.403  51.659  0.00  0.00    +0.000 A 
ATOM     15  C   UNL     1      63.043  58.053  52.142  0.00  0.00    +0.000 A 
ATOM     16  C   UNL     1      63.450  58.507  52.697  0.00  0.00    +0.000 A 
ATOM     17  N   UNL     1      63.287  59.312  52.770  0.00  0.00    +0.000 NA
ATOM     18  C   UNL     1      61.252  61.976  51.467  0.00  0.00    +0.000 C 
ATOM     19  C   UNL     1      61.089  62.781  51.540  0.00  0.00    +0.000 C 
ATOM     20  O   UNL     1      60.845  61.521  50.912  0.00  0.00    +0.000 OA
ATOM     21  C   UNL     1      60.215  61.870  50.368  0.00  0.00    +0.000 C 
ATOM     22  O   UNL     1      60.129  62.677  50.520  0.00  0.00    +0.000 OA
ATOM     23  C   UNL     1      59.697  61.643  49.766  0.00  0.00    +0.000 C 
ATOM     24  N   UNL     1      59.274  62.311  49.529  0.00  0.00    +0.000 NA
ATOM     25  C   UNL     1      59.531  62.950  49.985  0.00  0.00    +0.000 C 
ATOM     26  O   UNL     1      60.105  62.950  50.577  0.00  0.00    +0.000 OA
ATOM     27  C   UNL     1      59.379  63.834  50.092  0.00  0.00    +0.000 C 
ATOM     28  C   UNL     1      58.809  64.184  49.610  0.00  0.00    +0.000 C 
ATOM     29  C   UNL     1      58.646  64.990  49.682  0.00  0.00    +0.000 C 
ATOM     30  O   UNL     1      58.076  65.340  49.200  0.00  0.00    +0.000 OA
ATOM     31  C   UNL     1      59.053  65.445  50.238  0.00  0.00    +0.000 C 
ATOM     32  C   UNL     1      58.890  66.250  50.310  0.00  0.00    +0.000 C 
ATOM     33  S   UNL     1      58.321  66.600  49.828  0.00  0.00    +0.000 S 
ATOM     34  C   UNL     1      58.157  67.406  49.900  0.00  0.00    +0.000 C 
ATOM     35  C   UNL     1      58.564  67.861  50.455  0.00  0.00    +0.000 C 
ATOM     36  N   UNL     1      58.402  68.666  50.528  0.00  0.00    +0.000 NA
ATOM     37  C   UNL     1      57.831  69.017  50.045  0.00  0.00    +0.000 C 
ATOM     38  C   UNL     1      57.425  68.562  49.490  0.00  0.00    +0.000 C 
ATOM     39  C   UNL     1      57.588  67.757  49.418  0.00  0.00    +0.000 C 
ATOM     40  C   UNL     1      57.788  68.171  49.748  0.00  0.00    +0.000 C 
ATOM     41  C   UNL     1      58.060  68.475  50.119  0.00  0.00    +0.000 C 
ATOM     42  C   UNL     1      59.623  65.093  50.720  0.00  0.00    +0.000 C 
ATOM     43  N   UNL     1      59.786  64.289  50.648  0.00  0.00    +0.000 N 
ATOM     44  C   UNL     1      60.356  63.937  51.130  0.00  0.00    +0.000 C 
ATOM     45  O   UNL     1      60.519  63.132  51.058  0.00  0.00    +0.000 OA
ATOM     46  C   UNL     1      60.763  64.392  51.685  0.00  0.00    +0.000 C 
ATOM     47  C   UNL     1      60.600  65.198  51.758  0.00  0.00    +0.000 C 
ATOM     48  C   UNL     1      61.007  65.653  52.313  0.00  0.00    +0.000 A 
ATOM     49  C   UNL     1      61.577  65.301  52.796  0.00  0.00    +0.000 A 
ATOM     50  C   UNL     1      61.984  65.756  53.351  0.00  0.00    +0.000 A 
ATOM     51  C   UNL     1      61.821  66.562  53.424  0.00  0.00    +0.000 A 
ATOM     52  C   UNL     1      61.251  66.913  52.941  0.00  0.00    +0.000 A 
ATOM     53  C   UNL     1      60.844  66.458  52.386  0.00  0.00    +0.000 A 
ATOM     54  N   UNL     1      62.227  67.017  53.979  0.00  0.00    +0.000 N 
ATOM     55  C   UNL     1      62.065  67.822  54.051  0.00  0.00    +0.000 C 
ATOM     56  C   UNL     1      62.797  66.666  54.461  0.00  0.00    +0.000 C 
ATOM     57  N   UNL     1      61.333  64.042  52.168  0.00  0.00    +0.000 N 
ATOM     58  C   UNL     1      61.496  63.236  52.095  0.00  0.00    +0.000 C 
ATOM     59  C   UNL     1      61.740  64.497  52.723  0.00  0.00    +0.000 C 
ATOM     60  O   UNL     1      61.939  65.183  53.134  0.00  0.00    +0.000 OA
ATOM     61  C   UNL     1      62.309  64.145  53.205  0.00  0.00    +0.000 C 
ATOM     62  C   UNL     1      62.566  64.784  53.661  0.00  0.00    +0.000 C 
ATOM     63  C   UNL     1      63.147  64.512  54.178  0.00  0.00    +0.000 C 
ATOM     64  C   UNL     1      63.250  63.704  54.044  0.00  0.00    +0.000 C 
ATOM     65  N   UNL     1      62.732  63.478  53.442  0.00  0.00    +0.000 N 
ATOM     66  C   UNL     1      62.472  63.340  53.133  0.00  0.00    +0.000 C 
ATOM     67  O   UNL     1      61.889  63.592  52.607  0.00  0.00    +0.000 OA
ATOM     68  C   UNL     1      59.617  60.883  49.456  0.00  0.00    +0.000 A 
ATOM     69  C   UNL     1      59.073  60.740  48.853  0.00  0.00    +0.000 A 
ATOM     70  C   UNL     1      58.992  59.979  48.542  0.00  0.00    +0.000 A 
ATOM     71  C   UNL     1      59.456  59.363  48.836  0.00  0.00    +0.000 A 
ATOM     72  C   UNL     1      59.999  59.507  49.439  0.00  0.00    +0.000 A 
ATOM     73  C   UNL     1      60.080  60.267  49.750  0.00  0.00    +0.000 A 
ENDROOT
TORSDOF 0
ENDMDL
MODEL 8
REMARK VINA RESULT:   -16.515      1.374      4.463
REMARK INTER + INTRA:         -16.515
REMARK INTER:                 -16.515
REMARK INTRA:                   0.000
REMARK UNBOUND:                 0.000
ROOT
REMARK  Name = quinupristin
REMARK                            x       y       z     vdW  Elec       q    Type
REMARK                         _______ _______ _______ _____ _____    ______ ____
ATOM      1  C   UNL     1      62.547  67.356  55.033  0.00  0.00    +0.000 C 
ATOM      2  C   UNL     1      62.692  66.578  54.798  0.00  0.00    +0.000 C 
ATOM      3  C   UNL     1      62.365  66.292  54.097  0.00  0.00    +0.000 C 
ATOM      4  N   UNL     1      61.881  66.607  53.508  0.00  0.00    +0.000 NA
ATOM      5  C   UNL     1      61.657  66.142  52.865  0.00  0.00    +0.000 C 
ATOM      6  O   UNL     1      61.917  65.360  52.812  0.00  0.00    +0.000 OA
ATOM      7  C   UNL     1      61.173  66.457  52.276  0.00  0.00    +0.000 C 
ATOM      8  N   UNL     1      60.914  67.237  52.329  0.00  0.00    +0.000 NA
ATOM      9  C   UNL     1      61.137  67.704  52.972  0.00  0.00    +0.000 C 
ATOM     10  O   UNL     1      61.621  67.389  53.561  0.00  0.00    +0.000 OA
ATOM     11  C   UNL     1      60.878  68.484  53.026  0.00  0.00    +0.000 A 
ATOM     12  C   UNL     1      60.394  68.799  52.436  0.00  0.00    +0.000 A 
ATOM     13  O   UNL     1      60.169  68.334  51.793  0.00  0.00    +0.000 OA
ATOM     14  C   UNL     1      60.133  69.581  52.490  0.00  0.00    +0.000 A 
ATOM     15  C   UNL     1      60.358  70.047  53.133  0.00  0.00    +0.000 A 
ATOM     16  C   UNL     1      60.842  69.732  53.722  0.00  0.00    +0.000 A 
ATOM     17  N   UNL     1      61.101  68.951  53.668  0.00  0.00    +0.000 NA
ATOM     18  C   UNL     1      60.949  65.990  51.633  0.00  0.00    +0.000 C 
ATOM     19  C   UNL     1      61.209  65.209  51.579  0.00  0.00    +0.000 C 
ATOM     20  O   UNL     1      60.466  66.305  51.044  0.00  0.00    +0.000 OA
ATOM     21  C   UNL     1      60.200  65.826  50.327  0.00  0.00    +0.000 C 
ATOM     22  O   UNL     1      60.513  65.063  50.369  0.00  0.00    +0.000 OA
ATOM     23  C   UNL     1      59.746  65.903  49.642  0.00  0.00    +0.000 C 
ATOM     24  N   UNL     1      59.767  65.183  49.240  0.00  0.00    +0.000 NA
ATOM     25  C   UNL     1      60.234  64.660  49.676  0.00  0.00    +0.000 C 
ATOM     26  O   UNL     1      60.622  64.805  50.389  0.00  0.00    +0.000 OA
ATOM     27  C   UNL     1      60.538  63.810  49.651  0.00  0.00    +0.000 C 
ATOM     28  C   UNL     1      60.313  63.344  49.008  0.00  0.00    +0.000 C 
ATOM     29  C   UNL     1      60.573  62.563  48.955  0.00  0.00    +0.000 C 
ATOM     30  O   UNL     1      60.349  62.097  48.312  0.00  0.00    +0.000 OA
ATOM     31  C   UNL     1      61.057  62.248  49.544  0.00  0.00    +0.000 C 
ATOM     32  C   UNL     1      61.317  61.467  49.491  0.00  0.00    +0.000 C 
ATOM     33  S   UNL     1      61.093  61.001  48.848  0.00  0.00    +0.000 S 
ATOM     34  C   UNL     1      61.353  60.220  48.794  0.00  0.00    +0.000 C 
ATOM     35  C   UNL     1      61.837  59.905  49.384  0.00  0.00    +0.000 C 
ATOM     36  N   UNL     1      62.097  59.124  49.331  0.00  0.00    +0.000 NA
ATOM     37  C   UNL     1      61.873  58.657  48.687  0.00  0.00    +0.000 C 
ATOM     38  C   UNL     1      61.389  58.972  48.098  0.00  0.00    +0.000 C 
ATOM     39  C   UNL     1      61.129  59.754  48.152  0.00  0.00    +0.000 C 
ATOM     40  C   UNL     1      61.455  59.423  48.478  0.00  0.00    +0.000 C 
ATOM     41  C   UNL     1      61.778  59.213  48.871  0.00  0.00    +0.000 C 
ATOM     42  C   UNL     1      61.281  62.714  50.187  0.00  0.00    +0.000 C 
ATOM     43  N   UNL     1      61.021  63.495  50.240  0.00  0.00    +0.000 N 
ATOM     44  C   UNL     1      61.245  63.962  50.883  0.00  0.00    +0.000 C 
ATOM     45  O   UNL     1      60.985  64.742  50.937  0.00  0.00    +0.000 OA
ATOM     46  C   UNL     1      61.729  63.647  51.472  0.00  0.00    +0.000 C 
ATOM     47  C   UNL     1      61.989  62.865  51.419  0.00  0.00    +0.000 C 
ATOM     48  C   UNL     1      62.473  62.550  52.008  0.00  0.00    +0.000 A 
ATOM     49  C   UNL     1      62.697  63.017  52.651  0.00  0.00    +0.000 A 
ATOM     50  C   UNL     1      63.181  62.702  53.240  0.00  0.00    +0.000 A 
ATOM     51  C   UNL     1      63.441  61.920  53.187  0.00  0.00    +0.000 A 
ATOM     52  C   UNL     1      63.217  61.454  52.544  0.00  0.00    +0.000 A 
ATOM     53  C   UNL     1      62.733  61.769  51.955  0.00  0.00    +0.000 A 
ATOM     54  N   UNL     1      63.925  61.605  53.776  0.00  0.00    +0.000 N 
ATOM     55  C   UNL     1      64.184  60.824  53.723  0.00  0.00    +0.000 C 
ATOM     56  C   UNL     1      64.148  62.072  54.419  0.00  0.00    +0.000 C 
ATOM     57  N   UNL     1      61.953  64.112  52.115  0.00  0.00    +0.000 N 
ATOM     58  C   UNL     1      61.693  64.894  52.169  0.00  0.00    +0.000 C 
ATOM     59  C   UNL     1      62.437  63.797  52.705  0.00  0.00    +0.000 C 
ATOM     60  O   UNL     1      62.887  63.217  53.079  0.00  0.00    +0.000 OA
ATOM     61  C   UNL     1      62.661  64.264  53.347  0.00  0.00    +0.000 C 
ATOM     62  C   UNL     1      63.128  63.742  53.784  0.00  0.00    +0.000 C 
ATOM     63  C   UNL     1      63.395  64.139  54.455  0.00  0.00    +0.000 C 
ATOM     64  C   UNL     1      63.094  64.907  54.434  0.00  0.00    +0.000 C 
ATOM     65  N   UNL     1      62.640  64.984  53.749  0.00  0.00    +0.000 N 
ATOM     66  C   UNL     1      62.401  65.045  53.401  0.00  0.00    +0.000 C 
ATOM     67  O   UNL     1      62.123  64.666  52.723  0.00  0.00    +0.000 OA
ATOM     68  C   UNL     1      59.343  66.581  49.401  0.00  0.00    +0.000 A 
ATOM     69  C   UNL     1      58.909  66.575  48.699  0.00  0.00    +0.000 A 
ATOM     70  C   UNL     1      58.505  67.254  48.458  0.00  0.00    +0.000 A 
ATOM     71  C   UNL     1      58.535  67.937  48.920  0.00  0.00    +0.000 A 
ATOM     72  C   UNL     1      58.969  67.942  49.622  0.00  0.00    +0.000 A 
ATOM     73  C   UNL     1      59.373  67.264  49.862  0.00  0.00    +0.000 A 
ENDROOT
TORSDOF 0
ENDMDL
