MODEL 1
REMARK VINA RESULT:   -14.277      0.000      0.000
REMARK INTER + INTRA:         -14.277
REMARK INTER:                 -14.277
REMARK INTRA:                   0.000
REMARK UNBOUND:                 0.000
ROOT
REMARK  Name = quinbolone
REMARK                            x       y       z     vdW  Elec       q    Type
REMARK                         _______ _______ _______ _____ _____    ______ ____
ATOM      1  C   UNL     1      61.727  63.248  67.654  0.00  0.00    +0.000 C 
ATOM      2  C   UNL     1      61.175  62.809  67.225  0.00  0.00    +0.000 C 
ATOM      3  C   UNL     1      61.896  62.912  66.837  0.00  0.00    +0.000 C 
ATOM      4  C   UNL     1      62.011  62.588  66.087  0.00  0.00    +0.000 C 
ATOM      5  C   UNL     1      61.405  62.161  65.725  0.00  0.00    +0.000 C 
ATOM      6  C   UNL     1      60.684  62.058  66.113  0.00  0.00    +0.000 C 
ATOM      7  C   UNL     1      60.078  61.631  65.750  0.00  0.00    +0.000 C 
ATOM      8  C   UNL     1      60.194  61.306  65.001  0.00  0.00    +0.000 C 
ATOM      9  C   UNL     1      60.915  61.410  64.614  0.00  0.00    +0.000 C 
ATOM     10  C   UNL     1      61.029  61.084  63.863  0.00  0.00    +0.000 C 
ATOM     11  C   UNL     1      61.750  61.188  63.477  0.00  0.00    +0.000 C 
ATOM     12  O   UNL     1      61.866  60.863  62.727  0.00  0.00    +0.000 OA
ATOM     13  C   UNL     1      62.356  61.615  63.838  0.00  0.00    +0.000 C 
ATOM     14  C   UNL     1      62.241  61.939  64.588  0.00  0.00    +0.000 C 
ATOM     15  C   UNL     1      61.521  61.837  64.976  0.00  0.00    +0.000 C 
ATOM     16  C   UNL     1      62.127  62.264  65.338  0.00  0.00    +0.000 C 
ATOM     17  C   UNL     1      60.569  62.382  66.863  0.00  0.00    +0.000 C 
ATOM     18  C   UNL     1      59.923  62.372  67.375  0.00  0.00    +0.000 C 
ATOM     19  C   UNL     1      60.129  62.793  68.054  0.00  0.00    +0.000 C 
ATOM     20  C   UNL     1      60.903  63.064  67.962  0.00  0.00    +0.000 C 
ATOM     21  O   UNL     1      61.330  63.509  68.509  0.00  0.00    +0.000 OA
ATOM     22  C   UNL     1      60.984  63.723  69.226  0.00  0.00    +0.000 C 
ATOM     23  C   UNL     1      61.341  64.166  69.824  0.00  0.00    +0.000 C 
ATOM     24  C   UNL     1      60.797  64.248  70.439  0.00  0.00    +0.000 C 
ATOM     25  C   UNL     1      60.105  63.857  70.222  0.00  0.00    +0.000 C 
ATOM     26  C   UNL     1      60.219  63.532  69.472  0.00  0.00    +0.000 C 
ENDROOT
TORSDOF 0
ENDMDL
MODEL 2
REMARK VINA RESULT:   -13.881      1.360      5.215
REMARK INTER + INTRA:         -13.881
REMARK INTER:                 -13.881
REMARK INTRA:                   0.000
REMARK UNBOUND:                 0.000
ROOT
REMARK  Name = quinbolone
REMARK                            x       y       z     vdW  Elec       q    Type
REMARK                         _______ _______ _______ _____ _____    ______ ____
ATOM      1  C   UNL     1      61.628  63.259  67.552  0.00  0.00    +0.000 C 
ATOM      2  C   UNL     1      61.232  62.786  68.100  0.00  0.00    +0.000 C 
ATOM      3  C   UNL     1      61.509  63.499  68.410  0.00  0.00    +0.000 C 
ATOM      4  C   UNL     1      61.380  63.682  69.204  0.00  0.00    +0.000 C 
ATOM      5  C   UNL     1      60.973  63.151  69.688  0.00  0.00    +0.000 C 
ATOM      6  C   UNL     1      60.697  62.438  69.378  0.00  0.00    +0.000 C 
ATOM      7  C   UNL     1      60.291  61.908  69.863  0.00  0.00    +0.000 C 
ATOM      8  C   UNL     1      60.161  62.090  70.657  0.00  0.00    +0.000 C 
ATOM      9  C   UNL     1      60.438  62.803  70.966  0.00  0.00    +0.000 C 
ATOM     10  C   UNL     1      60.308  62.986  71.761  0.00  0.00    +0.000 C 
ATOM     11  C   UNL     1      60.585  63.698  72.070  0.00  0.00    +0.000 C 
ATOM     12  O   UNL     1      60.455  63.881  72.864  0.00  0.00    +0.000 OA
ATOM     13  C   UNL     1      60.991  64.229  71.586  0.00  0.00    +0.000 C 
ATOM     14  C   UNL     1      61.120  64.046  70.792  0.00  0.00    +0.000 C 
ATOM     15  C   UNL     1      60.844  63.334  70.482  0.00  0.00    +0.000 C 
ATOM     16  C   UNL     1      61.250  63.864  69.998  0.00  0.00    +0.000 C 
ATOM     17  C   UNL     1      60.826  62.255  68.584  0.00  0.00    +0.000 C 
ATOM     18  C   UNL     1      60.620  61.600  68.128  0.00  0.00    +0.000 C 
ATOM     19  C   UNL     1      60.899  61.725  67.362  0.00  0.00    +0.000 C 
ATOM     20  C   UNL     1      61.278  62.458  67.344  0.00  0.00    +0.000 C 
ATOM     21  O   UNL     1      61.637  62.803  66.687  0.00  0.00    +0.000 OA
ATOM     22  C   UNL     1      61.639  62.407  65.963  0.00  0.00    +0.000 C 
ATOM     23  C   UNL     1      61.975  62.681  65.261  0.00  0.00    +0.000 C 
ATOM     24  C   UNL     1      61.849  62.112  64.678  0.00  0.00    +0.000 C 
ATOM     25  C   UNL     1      61.434  61.485  65.019  0.00  0.00    +0.000 C 
ATOM     26  C   UNL     1      61.304  61.668  65.814  0.00  0.00    +0.000 C 
ENDROOT
TORSDOF 0
ENDMDL
MODEL 3
REMARK VINA RESULT:   -13.778      4.374      6.451
REMARK INTER + INTRA:         -13.778
REMARK INTER:                 -13.778
REMARK INTRA:                   0.000
REMARK UNBOUND:                 0.000
ROOT
REMARK  Name = quinbolone
REMARK                            x       y       z     vdW  Elec       q    Type
REMARK                         _______ _______ _______ _____ _____    ______ ____
ATOM      1  C   UNL     1      62.680  63.914  70.042  0.00  0.00    +0.000 C 
ATOM      2  C   UNL     1      62.853  64.468  70.629  0.00  0.00    +0.000 C 
ATOM      3  C   UNL     1      63.316  64.543  69.950  0.00  0.00    +0.000 C 
ATOM      4  C   UNL     1      63.889  65.134  69.905  0.00  0.00    +0.000 C 
ATOM      5  C   UNL     1      64.000  65.650  70.539  0.00  0.00    +0.000 C 
ATOM      6  C   UNL     1      63.537  65.575  71.219  0.00  0.00    +0.000 C 
ATOM      7  C   UNL     1      63.649  66.091  71.853  0.00  0.00    +0.000 C 
ATOM      8  C   UNL     1      64.222  66.682  71.808  0.00  0.00    +0.000 C 
ATOM      9  C   UNL     1      64.684  66.757  71.129  0.00  0.00    +0.000 C 
ATOM     10  C   UNL     1      65.258  67.349  71.084  0.00  0.00    +0.000 C 
ATOM     11  C   UNL     1      65.720  67.424  70.405  0.00  0.00    +0.000 C 
ATOM     12  O   UNL     1      66.294  68.015  70.360  0.00  0.00    +0.000 OA
ATOM     13  C   UNL     1      65.609  66.908  69.771  0.00  0.00    +0.000 C 
ATOM     14  C   UNL     1      65.036  66.317  69.816  0.00  0.00    +0.000 C 
ATOM     15  C   UNL     1      64.573  66.241  70.494  0.00  0.00    +0.000 C 
ATOM     16  C   UNL     1      64.463  65.725  69.860  0.00  0.00    +0.000 C 
ATOM     17  C   UNL     1      62.964  64.984  71.264  0.00  0.00    +0.000 C 
ATOM     18  C   UNL     1      62.429  64.777  71.857  0.00  0.00    +0.000 C 
ATOM     19  C   UNL     1      61.988  64.133  71.589  0.00  0.00    +0.000 C 
ATOM     20  C   UNL     1      62.250  63.942  70.830  0.00  0.00    +0.000 C 
ATOM     21  O   UNL     1      61.959  63.332  70.357  0.00  0.00    +0.000 OA
ATOM     22  C   UNL     1      61.351  62.849  70.634  0.00  0.00    +0.000 C 
ATOM     23  C   UNL     1      61.006  62.221  70.224  0.00  0.00    +0.000 C 
ATOM     24  C   UNL     1      60.423  61.892  70.706  0.00  0.00    +0.000 C 
ATOM     25  C   UNL     1      60.407  62.316  71.413  0.00  0.00    +0.000 C 
ATOM     26  C   UNL     1      60.981  62.908  71.369  0.00  0.00    +0.000 C 
ENDROOT
TORSDOF 0
ENDMDL
MODEL 4
REMARK VINA RESULT:   -13.423      4.600      6.239
REMARK INTER + INTRA:         -13.423
REMARK INTER:                 -13.423
REMARK INTRA:                   0.000
REMARK UNBOUND:                 0.000
ROOT
REMARK  Name = quinbolone
REMARK                            x       y       z     vdW  Elec       q    Type
REMARK                         _______ _______ _______ _____ _____    ______ ____
ATOM      1  C   UNL     1      64.009  65.321  70.007  0.00  0.00    +0.000 C 
ATOM      2  C   UNL     1      63.539  65.226  70.679  0.00  0.00    +0.000 C 
ATOM      3  C   UNL     1      63.367  64.695  70.071  0.00  0.00    +0.000 C 
ATOM      4  C   UNL     1      62.770  64.134  70.169  0.00  0.00    +0.000 C 
ATOM      5  C   UNL     1      62.344  64.105  70.875  0.00  0.00    +0.000 C 
ATOM      6  C   UNL     1      62.516  64.636  71.483  0.00  0.00    +0.000 C 
ATOM      7  C   UNL     1      62.089  64.606  72.189  0.00  0.00    +0.000 C 
ATOM      8  C   UNL     1      61.492  64.046  72.287  0.00  0.00    +0.000 C 
ATOM      9  C   UNL     1      61.321  63.515  71.679  0.00  0.00    +0.000 C 
ATOM     10  C   UNL     1      60.723  62.954  71.778  0.00  0.00    +0.000 C 
ATOM     11  C   UNL     1      60.552  62.424  71.170  0.00  0.00    +0.000 C 
ATOM     12  O   UNL     1      59.955  61.863  71.268  0.00  0.00    +0.000 OA
ATOM     13  C   UNL     1      60.978  62.453  70.464  0.00  0.00    +0.000 C 
ATOM     14  C   UNL     1      61.575  63.014  70.366  0.00  0.00    +0.000 C 
ATOM     15  C   UNL     1      61.747  63.545  70.973  0.00  0.00    +0.000 C 
ATOM     16  C   UNL     1      62.173  63.574  70.267  0.00  0.00    +0.000 C 
ATOM     17  C   UNL     1      63.113  65.197  71.385  0.00  0.00    +0.000 C 
ATOM     18  C   UNL     1      63.403  65.786  71.883  0.00  0.00    +0.000 C 
ATOM     19  C   UNL     1      64.009  66.181  71.485  0.00  0.00    +0.000 C 
ATOM     20  C   UNL     1      64.093  65.834  70.740  0.00  0.00    +0.000 C 
ATOM     21  O   UNL     1      64.635  66.057  70.160  0.00  0.00    +0.000 OA
ATOM     22  C   UNL     1      65.157  66.679  70.301  0.00  0.00    +0.000 C 
ATOM     23  C   UNL     1      65.727  66.963  69.776  0.00  0.00    +0.000 C 
ATOM     24  C   UNL     1      66.124  67.586  70.142  0.00  0.00    +0.000 C 
ATOM     25  C   UNL     1      65.800  67.689  70.894  0.00  0.00    +0.000 C 
ATOM     26  C   UNL     1      65.202  67.128  70.993  0.00  0.00    +0.000 C 
ENDROOT
TORSDOF 0
ENDMDL
MODEL 5
REMARK VINA RESULT:   -12.932      4.948      6.231
REMARK INTER + INTRA:         -12.932
REMARK INTER:                 -12.932
REMARK INTRA:                   0.000
REMARK UNBOUND:                 0.000
ROOT
REMARK  Name = quinbolone
REMARK                            x       y       z     vdW  Elec       q    Type
REMARK                         _______ _______ _______ _____ _____    ______ ____
ATOM      1  C   UNL     1      60.257  65.086  72.877  0.00  0.00    +0.000 C 
ATOM      2  C   UNL     1      60.255  64.577  72.228  0.00  0.00    +0.000 C 
ATOM      3  C   UNL     1      60.680  64.293  72.876  0.00  0.00    +0.000 C 
ATOM      4  C   UNL     1      61.054  63.559  72.835  0.00  0.00    +0.000 C 
ATOM      5  C   UNL     1      61.004  63.109  72.145  0.00  0.00    +0.000 C 
ATOM      6  C   UNL     1      60.579  63.393  71.497  0.00  0.00    +0.000 C 
ATOM      7  C   UNL     1      60.530  62.942  70.807  0.00  0.00    +0.000 C 
ATOM      8  C   UNL     1      60.904  62.208  70.766  0.00  0.00    +0.000 C 
ATOM      9  C   UNL     1      61.328  61.925  71.414  0.00  0.00    +0.000 C 
ATOM     10  C   UNL     1      61.703  61.190  71.372  0.00  0.00    +0.000 C 
ATOM     11  C   UNL     1      62.127  60.907  72.020  0.00  0.00    +0.000 C 
ATOM     12  O   UNL     1      62.501  60.174  71.979  0.00  0.00    +0.000 OA
ATOM     13  C   UNL     1      62.177  61.357  72.710  0.00  0.00    +0.000 C 
ATOM     14  C   UNL     1      61.803  62.091  72.751  0.00  0.00    +0.000 C 
ATOM     15  C   UNL     1      61.378  62.375  72.104  0.00  0.00    +0.000 C 
ATOM     16  C   UNL     1      61.428  62.825  72.793  0.00  0.00    +0.000 C 
ATOM     17  C   UNL     1      60.205  64.127  71.538  0.00  0.00    +0.000 C 
ATOM     18  C   UNL     1      59.751  64.546  70.992  0.00  0.00    +0.000 C 
ATOM     19  C   UNL     1      59.520  65.256  71.344  0.00  0.00    +0.000 C 
ATOM     20  C   UNL     1      59.832  65.275  72.108  0.00  0.00    +0.000 C 
ATOM     21  O   UNL     1      59.737  65.885  72.656  0.00  0.00    +0.000 OA
ATOM     22  C   UNL     1      59.296  66.553  72.456  0.00  0.00    +0.000 C 
ATOM     23  C   UNL     1      59.154  67.203  72.944  0.00  0.00    +0.000 C 
ATOM     24  C   UNL     1      58.691  67.740  72.524  0.00  0.00    +0.000 C 
ATOM     25  C   UNL     1      58.545  67.423  71.776  0.00  0.00    +0.000 C 
ATOM     26  C   UNL     1      58.920  66.688  71.734  0.00  0.00    +0.000 C 
ENDROOT
TORSDOF 0
ENDMDL
MODEL 6
REMARK VINA RESULT:   -12.923      1.263      2.391
REMARK INTER + INTRA:         -12.923
REMARK INTER:                 -12.923
REMARK INTRA:                   0.000
REMARK UNBOUND:                 0.000
ROOT
REMARK  Name = quinbolone
REMARK                            x       y       z     vdW  Elec       q    Type
REMARK                         _______ _______ _______ _____ _____    ______ ____
ATOM      1  C   UNL     1      61.802  63.846  69.796  0.00  0.00    +0.000 C 
ATOM      2  C   UNL     1      61.293  63.276  69.483  0.00  0.00    +0.000 C 
ATOM      3  C   UNL     1      61.789  63.627  68.924  0.00  0.00    +0.000 C 
ATOM      4  C   UNL     1      61.747  63.397  68.133  0.00  0.00    +0.000 C 
ATOM      5  C   UNL     1      61.208  62.816  67.901  0.00  0.00    +0.000 C 
ATOM      6  C   UNL     1      60.712  62.466  68.460  0.00  0.00    +0.000 C 
ATOM      7  C   UNL     1      60.174  61.886  68.227  0.00  0.00    +0.000 C 
ATOM      8  C   UNL     1      60.131  61.656  67.436  0.00  0.00    +0.000 C 
ATOM      9  C   UNL     1      60.627  62.006  66.878  0.00  0.00    +0.000 C 
ATOM     10  C   UNL     1      60.584  61.776  66.086  0.00  0.00    +0.000 C 
ATOM     11  C   UNL     1      61.079  62.126  65.528  0.00  0.00    +0.000 C 
ATOM     12  O   UNL     1      61.037  61.896  64.737  0.00  0.00    +0.000 OA
ATOM     13  C   UNL     1      61.618  62.706  65.760  0.00  0.00    +0.000 C 
ATOM     14  C   UNL     1      61.661  62.936  66.551  0.00  0.00    +0.000 C 
ATOM     15  C   UNL     1      61.165  62.587  67.110  0.00  0.00    +0.000 C 
ATOM     16  C   UNL     1      61.704  63.167  67.342  0.00  0.00    +0.000 C 
ATOM     17  C   UNL     1      60.755  62.696  69.251  0.00  0.00    +0.000 C 
ATOM     18  C   UNL     1      60.340  62.451  69.920  0.00  0.00    +0.000 C 
ATOM     19  C   UNL     1      60.622  62.879  70.566  0.00  0.00    +0.000 C 
ATOM     20  C   UNL     1      61.211  63.390  70.296  0.00  0.00    +0.000 C 
ATOM     21  O   UNL     1      61.643  63.920  70.758  0.00  0.00    +0.000 OA
ATOM     22  C   UNL     1      61.499  63.973  71.568  0.00  0.00    +0.000 C 
ATOM     23  C   UNL     1      61.884  64.475  72.098  0.00  0.00    +0.000 C 
ATOM     24  C   UNL     1      61.568  64.345  72.848  0.00  0.00    +0.000 C 
ATOM     25  C   UNL     1      60.987  63.763  72.784  0.00  0.00    +0.000 C 
ATOM     26  C   UNL     1      60.944  63.533  71.992  0.00  0.00    +0.000 C 
ENDROOT
TORSDOF 0
ENDMDL
MODEL 7
REMARK VINA RESULT:   -12.627      4.766      7.482
REMARK INTER + INTRA:         -12.627
REMARK INTER:                 -12.627
REMARK INTRA:                   0.000
REMARK UNBOUND:                 0.000
ROOT
REMARK  Name = quinbolone
REMARK                            x       y       z     vdW  Elec       q    Type
REMARK                         _______ _______ _______ _____ _____    ______ ____
ATOM      1  C   UNL     1      60.877  64.433  72.041  0.00  0.00    +0.000 C 
ATOM      2  C   UNL     1      61.602  64.755  71.809  0.00  0.00    +0.000 C 
ATOM      3  C   UNL     1      61.163  65.241  72.312  0.00  0.00    +0.000 C 
ATOM      4  C   UNL     1      61.461  65.977  72.537  0.00  0.00    +0.000 C 
ATOM      5  C   UNL     1      62.197  66.226  72.260  0.00  0.00    +0.000 C 
ATOM      6  C   UNL     1      62.636  65.739  71.758  0.00  0.00    +0.000 C 
ATOM      7  C   UNL     1      63.372  65.989  71.481  0.00  0.00    +0.000 C 
ATOM      8  C   UNL     1      63.670  66.724  71.706  0.00  0.00    +0.000 C 
ATOM      9  C   UNL     1      63.231  67.210  72.208  0.00  0.00    +0.000 C 
ATOM     10  C   UNL     1      63.530  67.947  72.433  0.00  0.00    +0.000 C 
ATOM     11  C   UNL     1      63.092  68.432  72.935  0.00  0.00    +0.000 C 
ATOM     12  O   UNL     1      63.389  69.168  73.161  0.00  0.00    +0.000 OA
ATOM     13  C   UNL     1      62.355  68.183  73.212  0.00  0.00    +0.000 C 
ATOM     14  C   UNL     1      62.058  67.448  72.987  0.00  0.00    +0.000 C 
ATOM     15  C   UNL     1      62.495  66.961  72.485  0.00  0.00    +0.000 C 
ATOM     16  C   UNL     1      61.759  66.712  72.762  0.00  0.00    +0.000 C 
ATOM     17  C   UNL     1      62.338  65.004  71.532  0.00  0.00    +0.000 C 
ATOM     18  C   UNL     1      62.642  64.410  71.048  0.00  0.00    +0.000 C 
ATOM     19  C   UNL     1      62.094  63.794  71.025  0.00  0.00    +0.000 C 
ATOM     20  C   UNL     1      61.450  64.006  71.496  0.00  0.00    +0.000 C 
ATOM     21  O   UNL     1      60.776  63.552  71.629  0.00  0.00    +0.000 OA
ATOM     22  C   UNL     1      60.702  62.810  71.276  0.00  0.00    +0.000 C 
ATOM     23  C   UNL     1      60.062  62.295  71.358  0.00  0.00    +0.000 C 
ATOM     24  C   UNL     1      60.220  61.620  70.912  0.00  0.00    +0.000 C 
ATOM     25  C   UNL     1      60.956  61.716  70.554  0.00  0.00    +0.000 C 
ATOM     26  C   UNL     1      61.255  62.453  70.779  0.00  0.00    +0.000 C 
ENDROOT
TORSDOF 0
ENDMDL
MODEL 8
REMARK VINA RESULT:   -12.589      4.796      6.395
REMARK INTER + INTRA:         -12.589
REMARK INTER:                 -12.589
REMARK INTRA:                   0.000
REMARK UNBOUND:                 0.000
ROOT
REMARK  Name = quinbolone
REMARK                            x       y       z     vdW  Elec       q    Type
REMARK                         _______ _______ _______ _____ _____    ______ ____
ATOM      1  C   UNL     1      62.855  65.951  71.840  0.00  0.00    +0.000 C 
ATOM      2  C   UNL     1      62.104  65.666  72.030  0.00  0.00    +0.000 C 
ATOM      3  C   UNL     1      62.559  65.142  71.583  0.00  0.00    +0.000 C 
ATOM      4  C   UNL     1      62.250  64.408  71.366  0.00  0.00    +0.000 C 
ATOM      5  C   UNL     1      61.487  64.198  71.597  0.00  0.00    +0.000 C 
ATOM      6  C   UNL     1      61.032  64.722  72.044  0.00  0.00    +0.000 C 
ATOM      7  C   UNL     1      60.268  64.511  72.275  0.00  0.00    +0.000 C 
ATOM      8  C   UNL     1      59.959  63.777  72.058  0.00  0.00    +0.000 C 
ATOM      9  C   UNL     1      60.414  63.254  71.612  0.00  0.00    +0.000 C 
ATOM     10  C   UNL     1      60.105  62.520  71.396  0.00  0.00    +0.000 C 
ATOM     11  C   UNL     1      60.560  61.997  70.949  0.00  0.00    +0.000 C 
ATOM     12  O   UNL     1      60.251  61.263  70.733  0.00  0.00    +0.000 OA
ATOM     13  C   UNL     1      61.324  62.207  70.718  0.00  0.00    +0.000 C 
ATOM     14  C   UNL     1      61.632  62.941  70.935  0.00  0.00    +0.000 C 
ATOM     15  C   UNL     1      61.178  63.464  71.381  0.00  0.00    +0.000 C 
ATOM     16  C   UNL     1      61.942  63.674  71.150  0.00  0.00    +0.000 C 
ATOM     17  C   UNL     1      61.340  65.456  72.260  0.00  0.00    +0.000 C 
ATOM     18  C   UNL     1      61.024  66.081  72.695  0.00  0.00    +0.000 C 
ATOM     19  C   UNL     1      61.593  66.678  72.734  0.00  0.00    +0.000 C 
ATOM     20  C   UNL     1      62.260  66.421  72.322  0.00  0.00    +0.000 C 
ATOM     21  O   UNL     1      62.960  66.845  72.221  0.00  0.00    +0.000 OA
ATOM     22  C   UNL     1      63.036  67.599  72.547  0.00  0.00    +0.000 C 
ATOM     23  C   UNL     1      63.700  68.087  72.492  0.00  0.00    +0.000 C 
ATOM     24  C   UNL     1      63.536  68.786  72.897  0.00  0.00    +0.000 C 
ATOM     25  C   UNL     1      62.772  68.733  73.202  0.00  0.00    +0.000 C 
ATOM     26  C   UNL     1      62.462  67.998  72.986  0.00  0.00    +0.000 C 
ENDROOT
TORSDOF 0
ENDMDL
MODEL 9
REMARK VINA RESULT:   -11.840      6.551      7.542
REMARK INTER + INTRA:         -11.840
REMARK INTER:                 -11.840
REMARK INTRA:                   0.000
REMARK UNBOUND:                 0.000
ROOT
REMARK  Name = quinbolone
REMARK                            x       y       z     vdW  Elec       q    Type
REMARK                         _______ _______ _______ _____ _____    ______ ____
ATOM      1  C   UNL     1      61.925  67.293  72.556  0.00  0.00    +0.000 C 
ATOM      2  C   UNL     1      62.376  66.733  72.149  0.00  0.00    +0.000 C 
ATOM      3  C   UNL     1      62.780  67.434  72.315  0.00  0.00    +0.000 C 
ATOM      4  C   UNL     1      63.564  67.524  72.077  0.00  0.00    +0.000 C 
ATOM      5  C   UNL     1      63.945  66.914  71.673  0.00  0.00    +0.000 C 
ATOM      6  C   UNL     1      63.541  66.213  71.507  0.00  0.00    +0.000 C 
ATOM      7  C   UNL     1      63.923  65.603  71.103  0.00  0.00    +0.000 C 
ATOM      8  C   UNL     1      64.708  65.693  70.865  0.00  0.00    +0.000 C 
ATOM      9  C   UNL     1      65.110  66.394  71.030  0.00  0.00    +0.000 C 
ATOM     10  C   UNL     1      65.896  66.484  70.792  0.00  0.00    +0.000 C 
ATOM     11  C   UNL     1      66.299  67.184  70.957  0.00  0.00    +0.000 C 
ATOM     12  O   UNL     1      67.083  67.274  70.719  0.00  0.00    +0.000 OA
ATOM     13  C   UNL     1      65.918  67.794  71.361  0.00  0.00    +0.000 C 
ATOM     14  C   UNL     1      65.133  67.704  71.600  0.00  0.00    +0.000 C 
ATOM     15  C   UNL     1      64.730  67.004  71.434  0.00  0.00    +0.000 C 
ATOM     16  C   UNL     1      64.349  67.614  71.838  0.00  0.00    +0.000 C 
ATOM     17  C   UNL     1      62.757  66.123  71.745  0.00  0.00    +0.000 C 
ATOM     18  C   UNL     1      62.223  65.501  71.660  0.00  0.00    +0.000 C 
ATOM     19  C   UNL     1      61.511  65.726  72.012  0.00  0.00    +0.000 C 
ATOM     20  C   UNL     1      61.605  66.488  72.314  0.00  0.00    +0.000 C 
ATOM     21  O   UNL     1      61.031  66.927  72.711  0.00  0.00    +0.000 OA
ATOM     22  C   UNL     1      60.281  66.608  72.836  0.00  0.00    +0.000 C 
ATOM     23  C   UNL     1      59.654  66.979  73.222  0.00  0.00    +0.000 C 
ATOM     24  C   UNL     1      59.012  66.462  73.222  0.00  0.00    +0.000 C 
ATOM     25  C   UNL     1      59.241  65.770  72.836  0.00  0.00    +0.000 C 
ATOM     26  C   UNL     1      60.027  65.860  72.597  0.00  0.00    +0.000 C 
ENDROOT
TORSDOF 0
ENDMDL
