MODEL 1
REMARK VINA RESULT:   -11.917      0.000      0.000
REMARK INTER + INTRA:         -11.917
REMARK INTER:                 -11.917
REMARK INTRA:                   0.000
REMARK UNBOUND:                 0.000
ROOT
REMARK  Name = rabeprazole
REMARK                            x       y       z     vdW  Elec       q    Type
REMARK                         _______ _______ _______ _____ _____    ______ ____
ATOM      1  C   UNL     1      62.380  66.498  73.222  0.00  0.00    +0.000 C 
ATOM      2  O   UNL     1      62.610  66.204  72.487  0.00  0.00    +0.000 OA
ATOM      3  C   UNL     1      62.085  65.747  72.043  0.00  0.00    +0.000 C 
ATOM      4  C   UNL     1      62.315  65.454  71.307  0.00  0.00    +0.000 C 
ATOM      5  C   UNL     1      61.791  64.997  70.863  0.00  0.00    +0.000 C 
ATOM      6  O   UNL     1      62.020  64.704  70.127  0.00  0.00    +0.000 OA
ATOM      7  C   UNL     1      61.496  64.247  69.683  0.00  0.00    +0.000 A 
ATOM      8  C   UNL     1      60.742  64.084  69.975  0.00  0.00    +0.000 A 
ATOM      9  C   UNL     1      60.217  63.627  69.532  0.00  0.00    +0.000 A 
ATOM     10  N   UNL     1      60.447  63.333  68.795  0.00  0.00    +0.000 NA
ATOM     11  C   UNL     1      61.201  63.497  68.503  0.00  0.00    +0.000 A 
ATOM     12  C   UNL     1      61.430  63.203  67.767  0.00  0.00    +0.000 C 
ATOM     13  S   UNL     1      60.906  62.746  67.323  0.00  0.00    +0.000 S 
ATOM     14  O   UNL     1      60.152  62.583  67.615  0.00  0.00    +0.000 OA
ATOM     15  C   UNL     1      61.135  62.453  66.587  0.00  0.00    +0.000 C 
ATOM     16  N   UNL     1      61.868  62.570  66.225  0.00  0.00    +0.000 NA
ATOM     17  C   UNL     1      61.858  62.181  65.499  0.00  0.00    +0.000 C 
ATOM     18  C   UNL     1      61.120  61.822  65.410  0.00  0.00    +0.000 C 
ATOM     19  N   UNL     1      60.674  61.991  66.083  0.00  0.00    +0.000 NA
ATOM     20  C   UNL     1      60.950  61.389  64.729  0.00  0.00    +0.000 C 
ATOM     21  C   UNL     1      61.517  61.314  64.136  0.00  0.00    +0.000 C 
ATOM     22  C   UNL     1      62.256  61.672  64.223  0.00  0.00    +0.000 C 
ATOM     23  C   UNL     1      62.426  62.105  64.904  0.00  0.00    +0.000 C 
ATOM     24  C   UNL     1      61.725  63.954  68.947  0.00  0.00    +0.000 A 
ATOM     25  C   UNL     1      62.479  64.117  68.655  0.00  0.00    +0.000 C 
ENDROOT
TORSDOF 0
ENDMDL
MODEL 2
REMARK VINA RESULT:   -11.008      2.028      2.711
REMARK INTER + INTRA:         -11.008
REMARK INTER:                 -11.008
REMARK INTRA:                   0.000
REMARK UNBOUND:                 0.000
ROOT
REMARK  Name = rabeprazole
REMARK                            x       y       z     vdW  Elec       q    Type
REMARK                         _______ _______ _______ _____ _____    ______ ____
ATOM      1  C   UNL     1      66.811  66.928  72.476  0.00  0.00    +0.000 C 
ATOM      2  O   UNL     1      66.485  66.591  71.798  0.00  0.00    +0.000 OA
ATOM      3  C   UNL     1      65.721  66.279  71.818  0.00  0.00    +0.000 C 
ATOM      4  C   UNL     1      65.395  65.942  71.140  0.00  0.00    +0.000 C 
ATOM      5  C   UNL     1      64.632  65.629  71.160  0.00  0.00    +0.000 C 
ATOM      6  O   UNL     1      64.305  65.292  70.482  0.00  0.00    +0.000 OA
ATOM      7  C   UNL     1      63.542  64.980  70.502  0.00  0.00    +0.000 A 
ATOM      8  C   UNL     1      63.105  65.005  71.201  0.00  0.00    +0.000 A 
ATOM      9  C   UNL     1      62.342  64.693  71.223  0.00  0.00    +0.000 A 
ATOM     10  N   UNL     1      62.015  64.355  70.543  0.00  0.00    +0.000 NA
ATOM     11  C   UNL     1      62.452  64.330  69.844  0.00  0.00    +0.000 A 
ATOM     12  C   UNL     1      62.126  63.993  69.166  0.00  0.00    +0.000 C 
ATOM     13  S   UNL     1      61.363  63.681  69.186  0.00  0.00    +0.000 S 
ATOM     14  O   UNL     1      60.926  63.706  69.885  0.00  0.00    +0.000 OA
ATOM     15  C   UNL     1      61.037  63.344  68.508  0.00  0.00    +0.000 C 
ATOM     16  N   UNL     1      61.406  63.280  67.773  0.00  0.00    +0.000 NA
ATOM     17  C   UNL     1      60.881  62.908  67.256  0.00  0.00    +0.000 C 
ATOM     18  C   UNL     1      60.188  62.742  67.671  0.00  0.00    +0.000 C 
ATOM     19  N   UNL     1      60.284  63.011  68.445  0.00  0.00    +0.000 NA
ATOM     20  C   UNL     1      59.559  62.367  67.291  0.00  0.00    +0.000 C 
ATOM     21  C   UNL     1      59.623  62.158  66.496  0.00  0.00    +0.000 C 
ATOM     22  C   UNL     1      60.316  62.324  66.080  0.00  0.00    +0.000 C 
ATOM     23  C   UNL     1      60.945  62.699  66.460  0.00  0.00    +0.000 C 
ATOM     24  C   UNL     1      63.216  64.643  69.824  0.00  0.00    +0.000 A 
ATOM     25  C   UNL     1      63.653  64.618  69.125  0.00  0.00    +0.000 C 
ENDROOT
TORSDOF 0
ENDMDL
MODEL 3
REMARK VINA RESULT:    -9.779      3.543      5.026
REMARK INTER + INTRA:          -9.779
REMARK INTER:                  -9.779
REMARK INTRA:                   0.000
REMARK UNBOUND:                 0.000
ROOT
REMARK  Name = rabeprazole
REMARK                            x       y       z     vdW  Elec       q    Type
REMARK                         _______ _______ _______ _____ _____    ______ ____
ATOM      1  C   UNL     1      67.656  68.858  69.473  0.00  0.00    +0.000 C 
ATOM      2  O   UNL     1      67.170  68.215  69.298  0.00  0.00    +0.000 OA
ATOM      3  C   UNL     1      66.593  67.974  69.836  0.00  0.00    +0.000 C 
ATOM      4  C   UNL     1      66.107  67.331  69.660  0.00  0.00    +0.000 C 
ATOM      5  C   UNL     1      65.530  67.089  70.198  0.00  0.00    +0.000 C 
ATOM      6  O   UNL     1      65.045  66.447  70.023  0.00  0.00    +0.000 OA
ATOM      7  C   UNL     1      64.468  66.205  70.561  0.00  0.00    +0.000 A 
ATOM      8  C   UNL     1      64.377  66.607  71.276  0.00  0.00    +0.000 A 
ATOM      9  C   UNL     1      63.801  66.367  71.815  0.00  0.00    +0.000 A 
ATOM     10  N   UNL     1      63.315  65.723  71.638  0.00  0.00    +0.000 NA
ATOM     11  C   UNL     1      63.405  65.321  70.923  0.00  0.00    +0.000 A 
ATOM     12  C   UNL     1      62.920  64.679  70.748  0.00  0.00    +0.000 C 
ATOM     13  S   UNL     1      62.343  64.437  71.286  0.00  0.00    +0.000 S 
ATOM     14  O   UNL     1      62.252  64.839  72.001  0.00  0.00    +0.000 OA
ATOM     15  C   UNL     1      61.857  63.795  71.110  0.00  0.00    +0.000 C 
ATOM     16  N   UNL     1      61.883  63.342  70.421  0.00  0.00    +0.000 NA
ATOM     17  C   UNL     1      61.302  62.759  70.477  0.00  0.00    +0.000 C 
ATOM     18  C   UNL     1      60.916  62.852  71.201  0.00  0.00    +0.000 C 
ATOM     19  N   UNL     1      61.259  63.492  71.592  0.00  0.00    +0.000 NA
ATOM     20  C   UNL     1      60.303  62.341  71.410  0.00  0.00    +0.000 C 
ATOM     21  C   UNL     1      60.075  61.739  70.896  0.00  0.00    +0.000 C 
ATOM     22  C   UNL     1      60.460  61.645  70.172  0.00  0.00    +0.000 C 
ATOM     23  C   UNL     1      61.073  62.155  69.963  0.00  0.00    +0.000 C 
ATOM     24  C   UNL     1      63.982  65.563  70.385  0.00  0.00    +0.000 A 
ATOM     25  C   UNL     1      64.073  65.161  69.670  0.00  0.00    +0.000 C 
ENDROOT
TORSDOF 0
ENDMDL
MODEL 4
REMARK VINA RESULT:    -9.458      4.116      5.964
REMARK INTER + INTRA:          -9.458
REMARK INTER:                  -9.458
REMARK INTRA:                   0.000
REMARK UNBOUND:                 0.000
ROOT
REMARK  Name = rabeprazole
REMARK                            x       y       z     vdW  Elec       q    Type
REMARK                         _______ _______ _______ _____ _____    ______ ____
ATOM      1  C   UNL     1      68.084  67.997  69.584  0.00  0.00    +0.000 C 
ATOM      2  O   UNL     1      67.396  67.984  70.036  0.00  0.00    +0.000 OA
ATOM      3  C   UNL     1      66.793  67.450  69.856  0.00  0.00    +0.000 C 
ATOM      4  C   UNL     1      66.104  67.437  70.309  0.00  0.00    +0.000 C 
ATOM      5  C   UNL     1      65.501  66.903  70.129  0.00  0.00    +0.000 C 
ATOM      6  O   UNL     1      64.812  66.890  70.582  0.00  0.00    +0.000 OA
ATOM      7  C   UNL     1      64.209  66.356  70.402  0.00  0.00    +0.000 A 
ATOM      8  C   UNL     1      64.296  65.835  69.768  0.00  0.00    +0.000 A 
ATOM      9  C   UNL     1      63.694  65.301  69.587  0.00  0.00    +0.000 A 
ATOM     10  N   UNL     1      63.004  65.288  70.040  0.00  0.00    +0.000 NA
ATOM     11  C   UNL     1      62.918  65.809  70.674  0.00  0.00    +0.000 A 
ATOM     12  C   UNL     1      62.229  65.796  71.127  0.00  0.00    +0.000 C 
ATOM     13  S   UNL     1      61.626  65.262  70.947  0.00  0.00    +0.000 S 
ATOM     14  O   UNL     1      61.713  64.741  70.313  0.00  0.00    +0.000 OA
ATOM     15  C   UNL     1      60.937  65.249  71.400  0.00  0.00    +0.000 C 
ATOM     16  N   UNL     1      60.773  65.734  72.047  0.00  0.00    +0.000 NA
ATOM     17  C   UNL     1      60.026  65.533  72.332  0.00  0.00    +0.000 C 
ATOM     18  C   UNL     1      59.727  64.924  71.862  0.00  0.00    +0.000 C 
ATOM     19  N   UNL     1      60.291  64.749  71.286  0.00  0.00    +0.000 NA
ATOM     20  C   UNL     1      58.982  64.608  72.020  0.00  0.00    +0.000 C 
ATOM     21  C   UNL     1      58.534  64.901  72.647  0.00  0.00    +0.000 C 
ATOM     22  C   UNL     1      58.831  65.510  73.118  0.00  0.00    +0.000 C 
ATOM     23  C   UNL     1      59.577  65.826  72.960  0.00  0.00    +0.000 C 
ATOM     24  C   UNL     1      63.521  66.343  70.854  0.00  0.00    +0.000 A 
ATOM     25  C   UNL     1      63.434  66.864  71.488  0.00  0.00    +0.000 C 
ENDROOT
TORSDOF 0
ENDMDL
