MODEL 1
REMARK VINA RESULT:   -11.670      0.000      0.000
REMARK INTER + INTRA:         -11.670
REMARK INTER:                 -11.670
REMARK INTRA:                   0.000
REMARK UNBOUND:                 0.000
ROOT
REMARK  Name = reposal
REMARK                            x       y       z     vdW  Elec       q    Type
REMARK                         _______ _______ _______ _____ _____    ______ ____
ATOM      1  C   UNL     1      60.256  61.570  65.238  0.00  0.00    +0.000 C 
ATOM      2  C   UNL     1      60.103  61.940  65.959  0.00  0.00    +0.000 C 
ATOM      3  C   UNL     1      60.695  62.375  66.333  0.00  0.00    +0.000 C 
ATOM      4  C   UNL     1      61.429  62.725  66.474  0.00  0.00    +0.000 C 
ATOM      5  O   UNL     1      62.043  62.628  65.932  0.00  0.00    +0.000 OA
ATOM      6  N   UNL     1      61.549  63.171  67.157  0.00  0.00    +0.000 NA
ATOM      7  C   UNL     1      60.935  63.268  67.700  0.00  0.00    +0.000 C 
ATOM      8  O   UNL     1      61.055  63.715  68.383  0.00  0.00    +0.000 OA
ATOM      9  N   UNL     1      60.201  62.919  67.558  0.00  0.00    +0.000 NA
ATOM     10  C   UNL     1      60.081  62.472  66.875  0.00  0.00    +0.000 C 
ATOM     11  O   UNL     1      59.347  62.123  66.735  0.00  0.00    +0.000 OA
ATOM     12  C   UNL     1      61.103  62.127  65.660  0.00  0.00    +0.000 C 
ATOM     13  C   UNL     1      61.887  62.378  65.604  0.00  0.00    +0.000 C 
ATOM     14  C   UNL     1      62.434  62.224  65.007  0.00  0.00    +0.000 C 
ATOM     15  C   UNL     1      62.334  61.782  64.318  0.00  0.00    +0.000 C 
ATOM     16  C   UNL     1      61.661  61.383  64.057  0.00  0.00    +0.000 C 
ATOM     17  C   UNL     1      60.922  61.329  64.420  0.00  0.00    +0.000 C 
ATOM     18  C   UNL     1      61.793  61.707  64.524  0.00  0.00    +0.000 C 
ATOM     19  C   UNL     1      60.674  61.660  65.133  0.00  0.00    +0.000 C 
ENDROOT
TORSDOF 0
ENDMDL
MODEL 2
REMARK VINA RESULT:   -11.037      1.588      3.213
REMARK INTER + INTRA:         -11.037
REMARK INTER:                 -11.037
REMARK INTRA:                   0.000
REMARK UNBOUND:                 0.000
ROOT
REMARK  Name = reposal
REMARK                            x       y       z     vdW  Elec       q    Type
REMARK                         _______ _______ _______ _____ _____    ______ ____
ATOM      1  C   UNL     1      61.458  62.725  66.482  0.00  0.00    +0.000 C 
ATOM      2  C   UNL     1      61.818  62.463  65.787  0.00  0.00    +0.000 C 
ATOM      3  C   UNL     1      61.385  62.024  65.240  0.00  0.00    +0.000 C 
ATOM      4  C   UNL     1      60.750  61.628  64.890  0.00  0.00    +0.000 C 
ATOM      5  O   UNL     1      60.021  61.600  65.274  0.00  0.00    +0.000 OA
ATOM      6  N   UNL     1      60.846  61.260  64.158  0.00  0.00    +0.000 NA
ATOM      7  C   UNL     1      61.576  61.288  63.775  0.00  0.00    +0.000 C 
ATOM      8  O   UNL     1      61.672  60.920  63.043  0.00  0.00    +0.000 OA
ATOM      9  N   UNL     1      62.211  61.684  64.124  0.00  0.00    +0.000 NA
ATOM     10  C   UNL     1      62.115  62.052  64.856  0.00  0.00    +0.000 C 
ATOM     11  O   UNL     1      62.749  62.448  65.204  0.00  0.00    +0.000 OA
ATOM     12  C   UNL     1      60.805  62.149  65.813  0.00  0.00    +0.000 C 
ATOM     13  C   UNL     1      60.065  61.821  65.652  0.00  0.00    +0.000 C 
ATOM     14  C   UNL     1      59.380  61.848  66.110  0.00  0.00    +0.000 C 
ATOM     15  C   UNL     1      59.264  62.210  66.842  0.00  0.00    +0.000 C 
ATOM     16  C   UNL     1      59.806  62.634  67.297  0.00  0.00    +0.000 C 
ATOM     17  C   UNL     1      60.597  62.801  67.132  0.00  0.00    +0.000 C 
ATOM     18  C   UNL     1      59.826  62.360  66.783  0.00  0.00    +0.000 C 
ATOM     19  C   UNL     1      61.042  62.585  66.472  0.00  0.00    +0.000 C 
ENDROOT
TORSDOF 0
ENDMDL
MODEL 3
REMARK VINA RESULT:   -10.214      5.286      6.337
REMARK INTER + INTRA:         -10.214
REMARK INTER:                 -10.214
REMARK INTRA:                   0.000
REMARK UNBOUND:                 0.000
ROOT
REMARK  Name = reposal
REMARK                            x       y       z     vdW  Elec       q    Type
REMARK                         _______ _______ _______ _____ _____    ______ ____
ATOM      1  C   UNL     1      61.590  63.039  72.543  0.00  0.00    +0.000 C 
ATOM      2  C   UNL     1      61.177  63.746  72.642  0.00  0.00    +0.000 C 
ATOM      3  C   UNL     1      60.530  63.916  72.160  0.00  0.00    +0.000 C 
ATOM      4  C   UNL     1      59.956  63.831  71.573  0.00  0.00    +0.000 C 
ATOM      5  O   UNL     1      59.946  63.153  71.102  0.00  0.00    +0.000 OA
ATOM      6  N   UNL     1      59.394  64.423  71.456  0.00  0.00    +0.000 NA
ATOM      7  C   UNL     1      59.404  65.100  71.926  0.00  0.00    +0.000 C 
ATOM      8  O   UNL     1      58.842  65.692  71.810  0.00  0.00    +0.000 OA
ATOM      9  N   UNL     1      59.978  65.185  72.514  0.00  0.00    +0.000 NA
ATOM     10  C   UNL     1      60.540  64.593  72.631  0.00  0.00    +0.000 C 
ATOM     11  O   UNL     1      61.113  64.680  73.218  0.00  0.00    +0.000 OA
ATOM     12  C   UNL     1      60.744  63.179  71.857  0.00  0.00    +0.000 C 
ATOM     13  C   UNL     1      60.279  62.898  71.236  0.00  0.00    +0.000 C 
ATOM     14  C   UNL     1      60.350  62.190  70.820  0.00  0.00    +0.000 C 
ATOM     15  C   UNL     1      60.904  61.587  70.921  0.00  0.00    +0.000 C 
ATOM     16  C   UNL     1      61.523  61.544  71.464  0.00  0.00    +0.000 C 
ATOM     17  C   UNL     1      61.742  62.093  72.039  0.00  0.00    +0.000 C 
ATOM     18  C   UNL     1      61.107  61.935  71.345  0.00  0.00    +0.000 C 
ATOM     19  C   UNL     1      61.395  62.821  72.214  0.00  0.00    +0.000 C 
ENDROOT
TORSDOF 0
ENDMDL
MODEL 4
REMARK VINA RESULT:   -10.098      3.984      5.598
REMARK INTER + INTRA:         -10.098
REMARK INTER:                 -10.098
REMARK INTRA:                   0.000
REMARK UNBOUND:                 0.000
ROOT
REMARK  Name = reposal
REMARK                            x       y       z     vdW  Elec       q    Type
REMARK                         _______ _______ _______ _____ _____    ______ ____
ATOM      1  C   UNL     1      61.212  61.693  71.117  0.00  0.00    +0.000 C 
ATOM      2  C   UNL     1      60.901  61.997  70.417  0.00  0.00    +0.000 C 
ATOM      3  C   UNL     1      60.741  62.803  70.352  0.00  0.00    +0.000 C 
ATOM      4  C   UNL     1      60.683  63.601  70.554  0.00  0.00    +0.000 C 
ATOM      5  O   UNL     1      60.918  63.854  71.303  0.00  0.00    +0.000 OA
ATOM      6  N   UNL     1      60.389  64.145  70.008  0.00  0.00    +0.000 NA
ATOM      7  C   UNL     1      60.153  63.891  69.259  0.00  0.00    +0.000 C 
ATOM      8  O   UNL     1      59.860  64.435  68.713  0.00  0.00    +0.000 OA
ATOM      9  N   UNL     1      60.212  63.093  69.057  0.00  0.00    +0.000 NA
ATOM     10  C   UNL     1      60.506  62.550  69.603  0.00  0.00    +0.000 C 
ATOM     11  O   UNL     1      60.564  61.752  69.399  0.00  0.00    +0.000 OA
ATOM     12  C   UNL     1      61.032  62.776  71.123  0.00  0.00    +0.000 C 
ATOM     13  C   UNL     1      61.059  63.499  71.521  0.00  0.00    +0.000 C 
ATOM     14  C   UNL     1      61.318  63.654  72.288  0.00  0.00    +0.000 C 
ATOM     15  C   UNL     1      61.614  63.126  72.848  0.00  0.00    +0.000 C 
ATOM     16  C   UNL     1      61.725  62.311  72.778  0.00  0.00    +0.000 C 
ATOM     17  C   UNL     1      61.566  61.824  72.131  0.00  0.00    +0.000 C 
ATOM     18  C   UNL     1      61.524  62.731  72.427  0.00  0.00    +0.000 C 
ATOM     19  C   UNL     1      61.258  62.031  71.395  0.00  0.00    +0.000 C 
ENDROOT
TORSDOF 0
ENDMDL
MODEL 5
REMARK VINA RESULT:    -9.828      5.505      7.268
REMARK INTER + INTRA:          -9.828
REMARK INTER:                  -9.828
REMARK INTRA:                   0.000
REMARK UNBOUND:                 0.000
ROOT
REMARK  Name = reposal
REMARK                            x       y       z     vdW  Elec       q    Type
REMARK                         _______ _______ _______ _____ _____    ______ ____
ATOM      1  C   UNL     1      64.586  66.720  71.666  0.00  0.00    +0.000 C 
ATOM      2  C   UNL     1      64.053  66.127  71.454  0.00  0.00    +0.000 C 
ATOM      3  C   UNL     1      64.046  65.835  70.684  0.00  0.00    +0.000 C 
ATOM      4  C   UNL     1      64.250  65.736  69.890  0.00  0.00    +0.000 C 
ATOM      5  O   UNL     1      64.851  66.193  69.558  0.00  0.00    +0.000 OA
ATOM      6  N   UNL     1      63.851  65.180  69.428  0.00  0.00    +0.000 NA
ATOM      7  C   UNL     1      63.250  64.723  69.760  0.00  0.00    +0.000 C 
ATOM      8  O   UNL     1      62.852  64.168  69.298  0.00  0.00    +0.000 OA
ATOM      9  N   UNL     1      63.047  64.822  70.554  0.00  0.00    +0.000 NA
ATOM     10  C   UNL     1      63.445  65.378  71.015  0.00  0.00    +0.000 C 
ATOM     11  O   UNL     1      63.242  65.476  71.808  0.00  0.00    +0.000 OA
ATOM     12  C   UNL     1      64.650  66.394  70.620  0.00  0.00    +0.000 C 
ATOM     13  C   UNL     1      65.002  66.457  69.876  0.00  0.00    +0.000 C 
ATOM     14  C   UNL     1      65.613  66.957  69.637  0.00  0.00    +0.000 C 
ATOM     15  C   UNL     1      66.022  67.518  70.082  0.00  0.00    +0.000 C 
ATOM     16  C   UNL     1      65.922  67.717  70.877  0.00  0.00    +0.000 C 
ATOM     17  C   UNL     1      65.388  67.404  71.422  0.00  0.00    +0.000 C 
ATOM     18  C   UNL     1      65.670  67.338  70.512  0.00  0.00    +0.000 C 
ATOM     19  C   UNL     1      64.822  66.815  71.308  0.00  0.00    +0.000 C 
ENDROOT
TORSDOF 0
ENDMDL
MODEL 6
REMARK VINA RESULT:    -9.536      6.539      7.601
REMARK INTER + INTRA:          -9.536
REMARK INTER:                  -9.536
REMARK INTRA:                   0.000
REMARK UNBOUND:                 0.000
ROOT
REMARK  Name = reposal
REMARK                            x       y       z     vdW  Elec       q    Type
REMARK                         _______ _______ _______ _____ _____    ______ ____
ATOM      1  C   UNL     1      64.295  66.244  69.962  0.00  0.00    +0.000 C 
ATOM      2  C   UNL     1      63.651  66.077  70.450  0.00  0.00    +0.000 C 
ATOM      3  C   UNL     1      63.614  66.401  71.208  0.00  0.00    +0.000 C 
ATOM      4  C   UNL     1      63.825  66.835  71.877  0.00  0.00    +0.000 C 
ATOM      5  O   UNL     1      64.528  67.265  71.884  0.00  0.00    +0.000 OA
ATOM      6  N   UNL     1      63.332  66.839  72.539  0.00  0.00    +0.000 NA
ATOM      7  C   UNL     1      62.629  66.408  72.532  0.00  0.00    +0.000 C 
ATOM      8  O   UNL     1      62.136  66.412  73.193  0.00  0.00    +0.000 OA
ATOM      9  N   UNL     1      62.418  65.974  71.862  0.00  0.00    +0.000 NA
ATOM     10  C   UNL     1      62.910  65.970  71.201  0.00  0.00    +0.000 C 
ATOM     11  O   UNL     1      62.699  65.536  70.532  0.00  0.00    +0.000 OA
ATOM     12  C   UNL     1      64.331  66.719  70.951  0.00  0.00    +0.000 C 
ATOM     13  C   UNL     1      64.721  67.204  71.493  0.00  0.00    +0.000 C 
ATOM     14  C   UNL     1      65.439  67.599  71.404  0.00  0.00    +0.000 C 
ATOM     15  C   UNL     1      65.945  67.608  70.753  0.00  0.00    +0.000 C 
ATOM     16  C   UNL     1      65.857  67.223  70.028  0.00  0.00    +0.000 C 
ATOM     17  C   UNL     1      65.241  66.734  69.777  0.00  0.00    +0.000 C 
ATOM     18  C   UNL     1      65.542  67.256  70.518  0.00  0.00    +0.000 C 
ATOM     19  C   UNL     1      64.562  66.510  70.188  0.00  0.00    +0.000 C 
ENDROOT
TORSDOF 0
ENDMDL
MODEL 7
REMARK VINA RESULT:    -9.453      5.362      6.365
REMARK INTER + INTRA:          -9.453
REMARK INTER:                  -9.453
REMARK INTRA:                   0.000
REMARK UNBOUND:                 0.000
ROOT
REMARK  Name = reposal
REMARK                            x       y       z     vdW  Elec       q    Type
REMARK                         _______ _______ _______ _____ _____    ______ ____
ATOM      1  C   UNL     1      61.813  64.383  72.480  0.00  0.00    +0.000 C 
ATOM      2  C   UNL     1      62.353  64.816  72.032  0.00  0.00    +0.000 C 
ATOM      3  C   UNL     1      62.632  64.513  71.318  0.00  0.00    +0.000 C 
ATOM      4  C   UNL     1      62.737  63.997  70.682  0.00  0.00    +0.000 C 
ATOM      5  O   UNL     1      62.330  63.280  70.661  0.00  0.00    +0.000 OA
ATOM      6  N   UNL     1      63.249  64.199  70.067  0.00  0.00    +0.000 NA
ATOM      7  C   UNL     1      63.655  64.916  70.087  0.00  0.00    +0.000 C 
ATOM      8  O   UNL     1      64.167  65.118  69.473  0.00  0.00    +0.000 OA
ATOM      9  N   UNL     1      63.551  65.432  70.723  0.00  0.00    +0.000 NA
ATOM     10  C   UNL     1      63.039  65.230  71.338  0.00  0.00    +0.000 C 
ATOM     11  O   UNL     1      62.935  65.746  71.973  0.00  0.00    +0.000 OA
ATOM     12  C   UNL     1      62.128  63.901  71.546  0.00  0.00    +0.000 C 
ATOM     13  C   UNL     1      62.085  63.260  71.026  0.00  0.00    +0.000 C 
ATOM     14  C   UNL     1      61.637  62.572  71.096  0.00  0.00    +0.000 C 
ATOM     15  C   UNL     1      61.122  62.352  71.701  0.00  0.00    +0.000 C 
ATOM     16  C   UNL     1      60.927  62.768  72.387  0.00  0.00    +0.000 C 
ATOM     17  C   UNL     1      61.199  63.505  72.636  0.00  0.00    +0.000 C 
ATOM     18  C   UNL     1      61.276  62.867  71.930  0.00  0.00    +0.000 C 
ATOM     19  C   UNL     1      61.734  64.010  72.262  0.00  0.00    +0.000 C 
ENDROOT
TORSDOF 0
ENDMDL
MODEL 8
REMARK VINA RESULT:    -9.164      6.228      7.734
REMARK INTER + INTRA:          -9.164
REMARK INTER:                  -9.164
REMARK INTRA:                   0.000
REMARK UNBOUND:                 0.000
ROOT
REMARK  Name = reposal
REMARK                            x       y       z     vdW  Elec       q    Type
REMARK                         _______ _______ _______ _____ _____    ______ ____
ATOM      1  C   UNL     1      64.512  66.022  71.688  0.00  0.00    +0.000 C 
ATOM      2  C   UNL     1      65.198  66.466  71.574  0.00  0.00    +0.000 C 
ATOM      3  C   UNL     1      65.390  66.739  70.820  0.00  0.00    +0.000 C 
ATOM      4  C   UNL     1      65.339  66.875  70.008  0.00  0.00    +0.000 C 
ATOM      5  O   UNL     1      64.703  66.574  69.578  0.00  0.00    +0.000 OA
ATOM      6  N   UNL     1      65.925  67.313  69.625  0.00  0.00    +0.000 NA
ATOM      7  C   UNL     1      66.561  67.615  70.054  0.00  0.00    +0.000 C 
ATOM      8  O   UNL     1      67.146  68.052  69.672  0.00  0.00    +0.000 OA
ATOM      9  N   UNL     1      66.612  67.478  70.867  0.00  0.00    +0.000 NA
ATOM     10  C   UNL     1      66.027  67.041  71.249  0.00  0.00    +0.000 C 
ATOM     11  O   UNL     1      66.079  66.905  72.061  0.00  0.00    +0.000 OA
ATOM     12  C   UNL     1      64.687  66.342  70.653  0.00  0.00    +0.000 C 
ATOM     13  C   UNL     1      64.446  66.358  69.863  0.00  0.00    +0.000 C 
ATOM     14  C   UNL     1      63.777  66.017  69.523  0.00  0.00    +0.000 C 
ATOM     15  C   UNL     1      63.182  65.577  69.888  0.00  0.00    +0.000 C 
ATOM     16  C   UNL     1      63.110  65.369  70.683  0.00  0.00    +0.000 C 
ATOM     17  C   UNL     1      63.615  65.550  71.309  0.00  0.00    +0.000 C 
ATOM     18  C   UNL     1      63.498  65.672  70.370  0.00  0.00    +0.000 C 
ATOM     19  C   UNL     1      64.317  65.983  71.296  0.00  0.00    +0.000 C 
ENDROOT
TORSDOF 0
ENDMDL
MODEL 9
REMARK VINA RESULT:    -8.956      5.604      6.473
REMARK INTER + INTRA:          -8.956
REMARK INTER:                  -8.956
REMARK INTRA:                   0.000
REMARK UNBOUND:                 0.000
ROOT
REMARK  Name = reposal
REMARK                            x       y       z     vdW  Elec       q    Type
REMARK                         _______ _______ _______ _____ _____    ______ ____
ATOM      1  C   UNL     1      63.738  66.286  71.258  0.00  0.00    +0.000 C 
ATOM      2  C   UNL     1      63.154  65.887  71.682  0.00  0.00    +0.000 C 
ATOM      3  C   UNL     1      62.925  65.128  71.456  0.00  0.00    +0.000 C 
ATOM      4  C   UNL     1      62.896  64.421  71.031  0.00  0.00    +0.000 C 
ATOM      5  O   UNL     1      63.390  64.311  70.380  0.00  0.00    +0.000 OA
ATOM      6  N   UNL     1      62.372  63.825  71.257  0.00  0.00    +0.000 NA
ATOM      7  C   UNL     1      61.878  63.936  71.907  0.00  0.00    +0.000 C 
ATOM      8  O   UNL     1      61.354  63.340  72.133  0.00  0.00    +0.000 OA
ATOM      9  N   UNL     1      61.907  64.643  72.333  0.00  0.00    +0.000 NA
ATOM     10  C   UNL     1      62.431  65.238  72.107  0.00  0.00    +0.000 C 
ATOM     11  O   UNL     1      62.459  65.944  72.532  0.00  0.00    +0.000 OA
ATOM     12  C   UNL     1      63.499  65.281  70.883  0.00  0.00    +0.000 C 
ATOM     13  C   UNL     1      63.630  64.677  70.337  0.00  0.00    +0.000 C 
ATOM     14  C   UNL     1      64.161  64.661  69.706  0.00  0.00    +0.000 C 
ATOM     15  C   UNL     1      64.691  65.245  69.464  0.00  0.00    +0.000 C 
ATOM     16  C   UNL     1      64.822  65.989  69.795  0.00  0.00    +0.000 C 
ATOM     17  C   UNL     1      64.455  66.333  70.449  0.00  0.00    +0.000 C 
ATOM     18  C   UNL     1      64.469  65.541  69.916  0.00  0.00    +0.000 C 
ATOM     19  C   UNL     1      63.866  66.018  70.933  0.00  0.00    +0.000 C 
ENDROOT
TORSDOF 0
ENDMDL
