MODEL 1
REMARK VINA RESULT:   -15.175      0.000      0.000
REMARK INTER + INTRA:         -15.175
REMARK INTER:                 -15.175
REMARK INTRA:                   0.000
REMARK UNBOUND:                 0.000
ROOT
REMARK  Name = rescinnamine
REMARK                            x       y       z     vdW  Elec       q    Type
REMARK                         _______ _______ _______ _____ _____    ______ ____
ATOM      1  C   UNL     1      61.635  64.848  52.002  0.00  0.00    +0.000 C 
ATOM      2  O   UNL     1      61.983  64.906  52.749  0.00  0.00    +0.000 OA
ATOM      3  C   UNL     1      62.335  64.243  53.091  0.00  0.00    +0.000 C 
ATOM      4  C   UNL     1      62.683  64.300  53.837  0.00  0.00    +0.000 C 
ATOM      5  C   UNL     1      63.035  63.637  54.180  0.00  0.00    +0.000 C 
ATOM      6  C   UNL     1      63.038  62.917  53.777  0.00  0.00    +0.000 C 
ATOM      7  C   UNL     1      63.390  62.255  54.120  0.00  0.00    +0.000 C 
ATOM      8  N   UNL     1      63.394  61.534  53.717  0.00  0.00    +0.000 NA
ATOM      9  C   UNL     1      63.746  60.872  54.060  0.00  0.00    +0.000 C 
ATOM     10  C   UNL     1      63.750  60.151  53.657  0.00  0.00    +0.000 C 
ATOM     11  C   UNL     1      63.401  60.095  52.911  0.00  0.00    +0.000 C 
ATOM     12  C   UNL     1      63.050  60.758  52.569  0.00  0.00    +0.000 C 
ATOM     13  N   UNL     1      62.752  60.536  51.832  0.00  0.00    +0.000 NA
ATOM     14  C   UNL     1      62.920  59.736  51.720  0.00  0.00    +0.000 C 
ATOM     15  C   UNL     1      63.321  59.463  52.386  0.00  0.00    +0.000 C 
ATOM     16  C   UNL     1      63.562  58.675  52.430  0.00  0.00    +0.000 C 
ATOM     17  C   UNL     1      63.401  58.160  51.806  0.00  0.00    +0.000 C 
ATOM     18  C   UNL     1      62.999  58.432  51.139  0.00  0.00    +0.000 C 
ATOM     19  O   UNL     1      62.838  57.917  50.516  0.00  0.00    +0.000 OA
ATOM     20  C   UNL     1      63.079  57.128  50.559  0.00  0.00    +0.000 C 
ATOM     21  C   UNL     1      62.759  59.221  51.096  0.00  0.00    +0.000 C 
ATOM     22  C   UNL     1      63.046  61.477  52.972  0.00  0.00    +0.000 C 
ATOM     23  C   UNL     1      62.694  62.140  52.629  0.00  0.00    +0.000 C 
ATOM     24  C   UNL     1      62.691  62.860  53.032  0.00  0.00    +0.000 C 
ATOM     25  C   UNL     1      62.339  63.523  52.689  0.00  0.00    +0.000 C 
ATOM     26  C   UNL     1      61.991  63.466  51.943  0.00  0.00    +0.000 C 
ATOM     27  O   UNL     1      61.639  64.129  51.600  0.00  0.00    +0.000 OA
ATOM     28  O   UNL     1      61.994  62.746  51.540  0.00  0.00    +0.000 OA
ATOM     29  C   UNL     1      61.646  62.689  50.794  0.00  0.00    +0.000 C 
ATOM     30  O   UNL     1      62.679  65.020  54.240  0.00  0.00    +0.000 OA
ATOM     31  C   UNL     1      62.328  65.682  53.897  0.00  0.00    +0.000 C 
ATOM     32  O   UNL     1      61.980  65.625  53.152  0.00  0.00    +0.000 OA
ATOM     33  C   UNL     1      62.324  66.403  54.300  0.00  0.00    +0.000 C 
ATOM     34  C   UNL     1      61.972  67.065  53.957  0.00  0.00    +0.000 C 
ATOM     35  C   UNL     1      61.968  67.786  54.360  0.00  0.00    +0.000 A 
ATOM     36  C   UNL     1      61.617  68.448  54.017  0.00  0.00    +0.000 A 
ATOM     37  C   UNL     1      61.613  69.168  54.420  0.00  0.00    +0.000 A 
ATOM     38  O   UNL     1      61.261  69.831  54.077  0.00  0.00    +0.000 OA
ATOM     39  C   UNL     1      61.257  70.551  54.480  0.00  0.00    +0.000 C 
ATOM     40  C   UNL     1      61.961  69.225  55.166  0.00  0.00    +0.000 A 
ATOM     41  O   UNL     1      61.957  69.945  55.568  0.00  0.00    +0.000 OA
ATOM     42  C   UNL     1      61.605  70.608  55.226  0.00  0.00    +0.000 C 
ATOM     43  C   UNL     1      62.313  68.562  55.509  0.00  0.00    +0.000 A 
ATOM     44  O   UNL     1      62.660  68.620  56.254  0.00  0.00    +0.000 OA
ATOM     45  C   UNL     1      63.012  67.957  56.597  0.00  0.00    +0.000 C 
ATOM     46  C   UNL     1      62.316  67.843  55.106  0.00  0.00    +0.000 A 
ENDROOT
TORSDOF 0
ENDMDL
MODEL 2
REMARK VINA RESULT:   -14.063      1.697      8.055
REMARK INTER + INTRA:         -14.063
REMARK INTER:                 -14.063
REMARK INTRA:                   0.000
REMARK UNBOUND:                 0.000
ROOT
REMARK  Name = rescinnamine
REMARK                            x       y       z     vdW  Elec       q    Type
REMARK                         _______ _______ _______ _____ _____    ______ ____
ATOM      1  C   UNL     1      60.998  63.803  51.582  0.00  0.00    +0.000 C 
ATOM      2  O   UNL     1      61.475  63.519  52.193  0.00  0.00    +0.000 OA
ATOM      3  C   UNL     1      61.709  64.024  52.801  0.00  0.00    +0.000 C 
ATOM      4  C   UNL     1      62.186  63.741  53.412  0.00  0.00    +0.000 C 
ATOM      5  C   UNL     1      62.420  64.246  54.021  0.00  0.00    +0.000 C 
ATOM      6  C   UNL     1      62.177  65.035  54.018  0.00  0.00    +0.000 C 
ATOM      7  C   UNL     1      62.412  65.540  54.627  0.00  0.00    +0.000 C 
ATOM      8  N   UNL     1      62.170  66.329  54.625  0.00  0.00    +0.000 NA
ATOM      9  C   UNL     1      62.404  66.834  55.234  0.00  0.00    +0.000 C 
ATOM     10  C   UNL     1      62.161  67.623  55.231  0.00  0.00    +0.000 C 
ATOM     11  C   UNL     1      61.684  67.906  54.621  0.00  0.00    +0.000 C 
ATOM     12  C   UNL     1      61.450  67.400  54.012  0.00  0.00    +0.000 C 
ATOM     13  N   UNL     1      60.983  67.832  53.488  0.00  0.00    +0.000 NA
ATOM     14  C   UNL     1      60.928  68.605  53.772  0.00  0.00    +0.000 C 
ATOM     15  C   UNL     1      61.361  68.651  54.472  0.00  0.00    +0.000 C 
ATOM     16  C   UNL     1      61.406  69.364  54.884  0.00  0.00    +0.000 C 
ATOM     17  C   UNL     1      61.018  70.032  54.596  0.00  0.00    +0.000 C 
ATOM     18  C   UNL     1      60.584  69.987  53.896  0.00  0.00    +0.000 C 
ATOM     19  O   UNL     1      60.196  70.655  53.607  0.00  0.00    +0.000 OA
ATOM     20  C   UNL     1      60.241  71.369  54.019  0.00  0.00    +0.000 C 
ATOM     21  C   UNL     1      60.539  69.273  53.484  0.00  0.00    +0.000 C 
ATOM     22  C   UNL     1      61.693  66.612  54.014  0.00  0.00    +0.000 C 
ATOM     23  C   UNL     1      61.458  66.106  53.406  0.00  0.00    +0.000 C 
ATOM     24  C   UNL     1      61.701  65.318  53.408  0.00  0.00    +0.000 C 
ATOM     25  C   UNL     1      61.467  64.812  52.800  0.00  0.00    +0.000 C 
ATOM     26  C   UNL     1      60.990  65.095  52.189  0.00  0.00    +0.000 C 
ATOM     27  O   UNL     1      60.755  64.590  51.581  0.00  0.00    +0.000 OA
ATOM     28  O   UNL     1      60.747  65.884  52.187  0.00  0.00    +0.000 OA
ATOM     29  C   UNL     1      60.270  66.167  51.576  0.00  0.00    +0.000 C 
ATOM     30  O   UNL     1      62.429  62.952  53.415  0.00  0.00    +0.000 OA
ATOM     31  C   UNL     1      62.194  62.447  52.806  0.00  0.00    +0.000 C 
ATOM     32  O   UNL     1      61.717  62.731  52.195  0.00  0.00    +0.000 OA
ATOM     33  C   UNL     1      62.437  61.659  52.808  0.00  0.00    +0.000 C 
ATOM     34  C   UNL     1      62.202  61.154  52.199  0.00  0.00    +0.000 C 
ATOM     35  C   UNL     1      62.445  60.365  52.202  0.00  0.00    +0.000 A 
ATOM     36  C   UNL     1      62.211  59.860  51.593  0.00  0.00    +0.000 A 
ATOM     37  C   UNL     1      62.454  59.071  51.596  0.00  0.00    +0.000 A 
ATOM     38  O   UNL     1      62.219  58.566  50.987  0.00  0.00    +0.000 OA
ATOM     39  C   UNL     1      62.462  57.777  50.989  0.00  0.00    +0.000 C 
ATOM     40  C   UNL     1      62.931  58.788  52.207  0.00  0.00    +0.000 A 
ATOM     41  O   UNL     1      63.173  58.000  52.208  0.00  0.00    +0.000 OA
ATOM     42  C   UNL     1      62.939  57.494  51.600  0.00  0.00    +0.000 C 
ATOM     43  C   UNL     1      63.165  59.294  52.815  0.00  0.00    +0.000 A 
ATOM     44  O   UNL     1      63.642  59.010  53.425  0.00  0.00    +0.000 OA
ATOM     45  C   UNL     1      63.876  59.516  54.034  0.00  0.00    +0.000 C 
ATOM     46  C   UNL     1      62.922  60.082  52.813  0.00  0.00    +0.000 A 
ENDROOT
TORSDOF 0
ENDMDL
MODEL 3
REMARK VINA RESULT:   -13.879      2.303      8.301
REMARK INTER + INTRA:         -13.879
REMARK INTER:                 -13.879
REMARK INTRA:                   0.000
REMARK UNBOUND:                 0.000
ROOT
REMARK  Name = rescinnamine
REMARK                            x       y       z     vdW  Elec       q    Type
REMARK                         _______ _______ _______ _____ _____    ______ ____
ATOM      1  C   UNL     1      61.096  65.549  51.667  0.00  0.00    +0.000 C 
ATOM      2  O   UNL     1      61.590  65.387  52.309  0.00  0.00    +0.000 OA
ATOM      3  C   UNL     1      61.696  65.953  52.900  0.00  0.00    +0.000 C 
ATOM      4  C   UNL     1      62.189  65.792  53.541  0.00  0.00    +0.000 C 
ATOM      5  C   UNL     1      62.295  66.357  54.133  0.00  0.00    +0.000 C 
ATOM      6  C   UNL     1      61.907  67.084  54.083  0.00  0.00    +0.000 C 
ATOM      7  C   UNL     1      62.013  67.649  54.674  0.00  0.00    +0.000 C 
ATOM      8  N   UNL     1      61.626  68.376  54.625  0.00  0.00    +0.000 NA
ATOM      9  C   UNL     1      61.732  68.941  55.216  0.00  0.00    +0.000 C 
ATOM     10  C   UNL     1      61.344  69.668  55.166  0.00  0.00    +0.000 C 
ATOM     11  C   UNL     1      60.850  69.829  54.525  0.00  0.00    +0.000 C 
ATOM     12  C   UNL     1      60.745  69.263  53.933  0.00  0.00    +0.000 C 
ATOM     13  N   UNL     1      60.228  69.576  53.371  0.00  0.00    +0.000 NA
ATOM     14  C   UNL     1      60.015  70.334  53.615  0.00  0.00    +0.000 C 
ATOM     15  C   UNL     1      60.399  70.491  54.328  0.00  0.00    +0.000 C 
ATOM     16  C   UNL     1      60.289  71.216  54.706  0.00  0.00    +0.000 C 
ATOM     17  C   UNL     1      59.794  71.785  54.371  0.00  0.00    +0.000 C 
ATOM     18  C   UNL     1      59.410  71.629  53.658  0.00  0.00    +0.000 C 
ATOM     19  O   UNL     1      58.915  72.197  53.323  0.00  0.00    +0.000 OA
ATOM     20  C   UNL     1      58.805  72.923  53.701  0.00  0.00    +0.000 C 
ATOM     21  C   UNL     1      59.520  70.903  53.280  0.00  0.00    +0.000 C 
ATOM     22  C   UNL     1      61.132  68.537  53.983  0.00  0.00    +0.000 C 
ATOM     23  C   UNL     1      61.027  67.971  53.392  0.00  0.00    +0.000 C 
ATOM     24  C   UNL     1      61.414  67.245  53.442  0.00  0.00    +0.000 C 
ATOM     25  C   UNL     1      61.308  66.679  52.851  0.00  0.00    +0.000 C 
ATOM     26  C   UNL     1      60.815  66.840  52.209  0.00  0.00    +0.000 C 
ATOM     27  O   UNL     1      60.709  66.275  51.618  0.00  0.00    +0.000 OA
ATOM     28  O   UNL     1      60.427  67.567  52.159  0.00  0.00    +0.000 OA
ATOM     29  C   UNL     1      59.934  67.728  51.518  0.00  0.00    +0.000 C 
ATOM     30  O   UNL     1      62.577  65.065  53.591  0.00  0.00    +0.000 OA
ATOM     31  C   UNL     1      62.471  64.500  53.000  0.00  0.00    +0.000 C 
ATOM     32  O   UNL     1      61.977  64.661  52.359  0.00  0.00    +0.000 OA
ATOM     33  C   UNL     1      62.858  63.773  53.049  0.00  0.00    +0.000 C 
ATOM     34  C   UNL     1      62.752  63.208  52.458  0.00  0.00    +0.000 C 
ATOM     35  C   UNL     1      63.140  62.481  52.508  0.00  0.00    +0.000 A 
ATOM     36  C   UNL     1      63.034  61.916  51.917  0.00  0.00    +0.000 A 
ATOM     37  C   UNL     1      63.422  61.189  51.967  0.00  0.00    +0.000 A 
ATOM     38  O   UNL     1      63.316  60.624  51.376  0.00  0.00    +0.000 OA
ATOM     39  C   UNL     1      63.704  59.897  51.425  0.00  0.00    +0.000 C 
ATOM     40  C   UNL     1      63.916  61.028  52.608  0.00  0.00    +0.000 A 
ATOM     41  O   UNL     1      64.303  60.302  52.657  0.00  0.00    +0.000 OA
ATOM     42  C   UNL     1      64.197  59.736  52.066  0.00  0.00    +0.000 C 
ATOM     43  C   UNL     1      64.021  61.594  53.200  0.00  0.00    +0.000 A 
ATOM     44  O   UNL     1      64.515  61.432  53.840  0.00  0.00    +0.000 OA
ATOM     45  C   UNL     1      64.620  61.998  54.431  0.00  0.00    +0.000 C 
ATOM     46  C   UNL     1      63.634  62.320  53.149  0.00  0.00    +0.000 A 
ENDROOT
TORSDOF 0
ENDMDL
MODEL 4
REMARK VINA RESULT:   -13.679      2.816      8.943
REMARK INTER + INTRA:         -13.679
REMARK INTER:                 -13.679
REMARK INTRA:                   0.000
REMARK UNBOUND:                 0.000
ROOT
REMARK  Name = rescinnamine
REMARK                            x       y       z     vdW  Elec       q    Type
REMARK                         _______ _______ _______ _____ _____    ______ ____
ATOM      1  C   UNL     1      62.214  67.243  54.950  0.00  0.00    +0.000 C 
ATOM      2  O   UNL     1      62.023  66.917  54.216  0.00  0.00    +0.000 OA
ATOM      3  C   UNL     1      61.554  67.342  53.686  0.00  0.00    +0.000 C 
ATOM      4  C   UNL     1      61.362  67.016  52.953  0.00  0.00    +0.000 C 
ATOM      5  C   UNL     1      60.893  67.440  52.423  0.00  0.00    +0.000 C 
ATOM      6  C   UNL     1      60.615  68.190  52.627  0.00  0.00    +0.000 C 
ATOM      7  C   UNL     1      60.146  68.614  52.098  0.00  0.00    +0.000 C 
ATOM      8  N   UNL     1      59.867  69.363  52.301  0.00  0.00    +0.000 NA
ATOM      9  C   UNL     1      59.398  69.787  51.772  0.00  0.00    +0.000 C 
ATOM     10  C   UNL     1      59.119  70.537  51.976  0.00  0.00    +0.000 C 
ATOM     11  C   UNL     1      59.311  70.862  52.710  0.00  0.00    +0.000 C 
ATOM     12  C   UNL     1      59.780  70.438  53.240  0.00  0.00    +0.000 C 
ATOM     13  N   UNL     1      59.878  70.897  53.918  0.00  0.00    +0.000 NA
ATOM     14  C   UNL     1      59.469  71.604  53.808  0.00  0.00    +0.000 C 
ATOM     15  C   UNL     1      59.118  71.583  53.062  0.00  0.00    +0.000 C 
ATOM     16  C   UNL     1      58.669  72.223  52.798  0.00  0.00    +0.000 C 
ATOM     17  C   UNL     1      58.570  72.885  53.281  0.00  0.00    +0.000 C 
ATOM     18  C   UNL     1      58.920  72.906  54.027  0.00  0.00    +0.000 C 
ATOM     19  O   UNL     1      58.821  73.567  54.510  0.00  0.00    +0.000 OA
ATOM     20  C   UNL     1      58.372  74.207  54.247  0.00  0.00    +0.000 C 
ATOM     21  C   UNL     1      59.369  72.266  54.291  0.00  0.00    +0.000 C 
ATOM     22  C   UNL     1      60.058  69.689  53.035  0.00  0.00    +0.000 C 
ATOM     23  C   UNL     1      60.528  69.264  53.565  0.00  0.00    +0.000 C 
ATOM     24  C   UNL     1      60.806  68.515  53.360  0.00  0.00    +0.000 C 
ATOM     25  C   UNL     1      61.275  68.091  53.890  0.00  0.00    +0.000 C 
ATOM     26  C   UNL     1      61.467  68.416  54.624  0.00  0.00    +0.000 C 
ATOM     27  O   UNL     1      61.936  67.992  55.153  0.00  0.00    +0.000 OA
ATOM     28  O   UNL     1      61.189  69.166  54.828  0.00  0.00    +0.000 OA
ATOM     29  C   UNL     1      61.380  69.491  55.562  0.00  0.00    +0.000 C 
ATOM     30  O   UNL     1      61.641  66.267  52.748  0.00  0.00    +0.000 OA
ATOM     31  C   UNL     1      62.110  65.843  53.278  0.00  0.00    +0.000 C 
ATOM     32  O   UNL     1      62.301  66.168  54.012  0.00  0.00    +0.000 OA
ATOM     33  C   UNL     1      62.389  65.093  53.074  0.00  0.00    +0.000 C 
ATOM     34  C   UNL     1      62.858  64.670  53.604  0.00  0.00    +0.000 C 
ATOM     35  C   UNL     1      63.136  63.920  53.399  0.00  0.00    +0.000 A 
ATOM     36  C   UNL     1      63.605  63.496  53.929  0.00  0.00    +0.000 A 
ATOM     37  C   UNL     1      63.884  62.746  53.724  0.00  0.00    +0.000 A 
ATOM     38  O   UNL     1      64.353  62.322  54.254  0.00  0.00    +0.000 OA
ATOM     39  C   UNL     1      64.631  61.573  54.051  0.00  0.00    +0.000 C 
ATOM     40  C   UNL     1      63.692  62.421  52.991  0.00  0.00    +0.000 A 
ATOM     41  O   UNL     1      63.970  61.672  52.787  0.00  0.00    +0.000 OA
ATOM     42  C   UNL     1      64.440  61.248  53.317  0.00  0.00    +0.000 C 
ATOM     43  C   UNL     1      63.223  62.846  52.461  0.00  0.00    +0.000 A 
ATOM     44  O   UNL     1      63.032  62.520  51.728  0.00  0.00    +0.000 OA
ATOM     45  C   UNL     1      62.562  62.944  51.199  0.00  0.00    +0.000 C 
ATOM     46  C   UNL     1      62.945  63.595  52.666  0.00  0.00    +0.000 A 
ENDROOT
TORSDOF 0
ENDMDL
MODEL 5
REMARK VINA RESULT:   -13.673      1.299      2.486
REMARK INTER + INTRA:         -13.673
REMARK INTER:                 -13.673
REMARK INTRA:                   0.000
REMARK UNBOUND:                 0.000
ROOT
REMARK  Name = rescinnamine
REMARK                            x       y       z     vdW  Elec       q    Type
REMARK                         _______ _______ _______ _____ _____    ______ ____
ATOM      1  C   UNL     1      63.621  63.280  53.971  0.00  0.00    +0.000 C 
ATOM      2  O   UNL     1      63.157  63.809  53.540  0.00  0.00    +0.000 OA
ATOM      3  C   UNL     1      62.855  63.587  52.805  0.00  0.00    +0.000 C 
ATOM      4  C   UNL     1      62.391  64.116  52.373  0.00  0.00    +0.000 C 
ATOM      5  C   UNL     1      62.088  63.895  51.639  0.00  0.00    +0.000 C 
ATOM      6  C   UNL     1      62.250  63.144  51.335  0.00  0.00    +0.000 C 
ATOM      7  C   UNL     1      61.948  62.923  50.601  0.00  0.00    +0.000 C 
ATOM      8  N   UNL     1      62.108  62.173  50.296  0.00  0.00    +0.000 NA
ATOM      9  C   UNL     1      61.806  61.952  49.562  0.00  0.00    +0.000 C 
ATOM     10  C   UNL     1      61.967  61.201  49.258  0.00  0.00    +0.000 C 
ATOM     11  C   UNL     1      62.431  60.673  49.690  0.00  0.00    +0.000 C 
ATOM     12  C   UNL     1      62.734  60.895  50.425  0.00  0.00    +0.000 C 
ATOM     13  N   UNL     1      63.170  60.261  50.723  0.00  0.00    +0.000 NA
ATOM     14  C   UNL     1      63.138  59.648  50.172  0.00  0.00    +0.000 C 
ATOM     15  C   UNL     1      62.681  59.902  49.533  0.00  0.00    +0.000 C 
ATOM     16  C   UNL     1      62.552  59.399  48.892  0.00  0.00    +0.000 C 
ATOM     17  C   UNL     1      62.879  58.642  48.889  0.00  0.00    +0.000 C 
ATOM     18  C   UNL     1      63.336  58.387  49.526  0.00  0.00    +0.000 C 
ATOM     19  O   UNL     1      63.663  57.631  49.524  0.00  0.00    +0.000 OA
ATOM     20  C   UNL     1      63.533  57.128  48.882  0.00  0.00    +0.000 C 
ATOM     21  C   UNL     1      63.465  58.891  50.168  0.00  0.00    +0.000 C 
ATOM     22  C   UNL     1      62.572  61.644  50.728  0.00  0.00    +0.000 C 
ATOM     23  C   UNL     1      62.875  61.866  51.463  0.00  0.00    +0.000 C 
ATOM     24  C   UNL     1      62.713  62.616  51.766  0.00  0.00    +0.000 C 
ATOM     25  C   UNL     1      63.016  62.838  52.501  0.00  0.00    +0.000 C 
ATOM     26  C   UNL     1      63.479  62.309  52.933  0.00  0.00    +0.000 C 
ATOM     27  O   UNL     1      63.782  62.531  53.668  0.00  0.00    +0.000 OA
ATOM     28  O   UNL     1      63.641  61.559  52.630  0.00  0.00    +0.000 OA
ATOM     29  C   UNL     1      64.105  61.030  53.061  0.00  0.00    +0.000 C 
ATOM     30  O   UNL     1      62.229  64.866  52.677  0.00  0.00    +0.000 OA
ATOM     31  C   UNL     1      62.532  65.087  53.411  0.00  0.00    +0.000 C 
ATOM     32  O   UNL     1      62.996  64.559  53.843  0.00  0.00    +0.000 OA
ATOM     33  C   UNL     1      62.371  65.837  53.716  0.00  0.00    +0.000 C 
ATOM     34  C   UNL     1      62.673  66.059  54.450  0.00  0.00    +0.000 C 
ATOM     35  C   UNL     1      62.512  66.809  54.754  0.00  0.00    +0.000 A 
ATOM     36  C   UNL     1      62.814  67.030  55.488  0.00  0.00    +0.000 A 
ATOM     37  C   UNL     1      62.653  67.781  55.792  0.00  0.00    +0.000 A 
ATOM     38  O   UNL     1      62.955  68.002  56.527  0.00  0.00    +0.000 OA
ATOM     39  C   UNL     1      62.794  68.752  56.831  0.00  0.00    +0.000 C 
ATOM     40  C   UNL     1      62.189  68.309  55.360  0.00  0.00    +0.000 A 
ATOM     41  O   UNL     1      62.028  69.059  55.664  0.00  0.00    +0.000 OA
ATOM     42  C   UNL     1      62.330  69.281  56.399  0.00  0.00    +0.000 C 
ATOM     43  C   UNL     1      61.887  68.087  54.625  0.00  0.00    +0.000 A 
ATOM     44  O   UNL     1      61.423  68.616  54.195  0.00  0.00    +0.000 OA
ATOM     45  C   UNL     1      61.121  68.394  53.459  0.00  0.00    +0.000 C 
ATOM     46  C   UNL     1      62.048  67.338  54.322  0.00  0.00    +0.000 A 
ENDROOT
TORSDOF 0
ENDMDL
MODEL 6
REMARK VINA RESULT:   -13.386      2.529      5.270
REMARK INTER + INTRA:         -13.386
REMARK INTER:                 -13.386
REMARK INTRA:                   0.000
REMARK UNBOUND:                 0.000
ROOT
REMARK  Name = rescinnamine
REMARK                            x       y       z     vdW  Elec       q    Type
REMARK                         _______ _______ _______ _____ _____    ______ ____
ATOM      1  C   UNL     1      61.579  69.043  55.378  0.00  0.00    +0.000 C 
ATOM      2  O   UNL     1      61.122  69.141  54.698  0.00  0.00    +0.000 OA
ATOM      3  C   UNL     1      61.106  68.548  54.124  0.00  0.00    +0.000 C 
ATOM      4  C   UNL     1      60.649  68.645  53.444  0.00  0.00    +0.000 C 
ATOM      5  C   UNL     1      60.632  68.053  52.870  0.00  0.00    +0.000 C 
ATOM      6  C   UNL     1      61.073  67.363  52.976  0.00  0.00    +0.000 C 
ATOM      7  C   UNL     1      61.056  66.771  52.403  0.00  0.00    +0.000 C 
ATOM      8  N   UNL     1      61.497  66.081  52.508  0.00  0.00    +0.000 NA
ATOM      9  C   UNL     1      61.480  65.489  51.934  0.00  0.00    +0.000 C 
ATOM     10  C   UNL     1      61.921  64.799  52.041  0.00  0.00    +0.000 C 
ATOM     11  C   UNL     1      62.378  64.702  52.721  0.00  0.00    +0.000 C 
ATOM     12  C   UNL     1      62.394  65.295  53.295  0.00  0.00    +0.000 C 
ATOM     13  N   UNL     1      62.891  65.046  53.904  0.00  0.00    +0.000 NA
ATOM     14  C   UNL     1      63.182  64.300  53.706  0.00  0.00    +0.000 C 
ATOM     15  C   UNL     1      62.865  64.087  52.975  0.00  0.00    +0.000 C 
ATOM     16  C   UNL     1      63.061  63.361  52.635  0.00  0.00    +0.000 C 
ATOM     17  C   UNL     1      63.574  62.848  53.027  0.00  0.00    +0.000 C 
ATOM     18  C   UNL     1      63.892  63.060  53.758  0.00  0.00    +0.000 C 
ATOM     19  O   UNL     1      64.405  62.547  54.149  0.00  0.00    +0.000 OA
ATOM     20  C   UNL     1      64.601  61.820  53.809  0.00  0.00    +0.000 C 
ATOM     21  C   UNL     1      63.696  63.786  54.097  0.00  0.00    +0.000 C 
ATOM     22  C   UNL     1      61.953  65.984  53.188  0.00  0.00    +0.000 C 
ATOM     23  C   UNL     1      61.970  66.577  53.762  0.00  0.00    +0.000 C 
ATOM     24  C   UNL     1      61.529  67.266  53.656  0.00  0.00    +0.000 C 
ATOM     25  C   UNL     1      61.546  67.859  54.230  0.00  0.00    +0.000 C 
ATOM     26  C   UNL     1      62.002  67.762  54.910  0.00  0.00    +0.000 C 
ATOM     27  O   UNL     1      62.019  68.354  55.484  0.00  0.00    +0.000 OA
ATOM     28  O   UNL     1      62.443  67.072  55.016  0.00  0.00    +0.000 OA
ATOM     29  C   UNL     1      62.900  66.975  55.697  0.00  0.00    +0.000 C 
ATOM     30  O   UNL     1      60.208  69.335  53.338  0.00  0.00    +0.000 OA
ATOM     31  C   UNL     1      60.225  69.927  53.912  0.00  0.00    +0.000 C 
ATOM     32  O   UNL     1      60.682  69.830  54.592  0.00  0.00    +0.000 OA
ATOM     33  C   UNL     1      59.785  70.617  53.806  0.00  0.00    +0.000 C 
ATOM     34  C   UNL     1      59.802  71.209  54.380  0.00  0.00    +0.000 C 
ATOM     35  C   UNL     1      59.361  71.899  54.274  0.00  0.00    +0.000 A 
ATOM     36  C   UNL     1      59.378  72.491  54.848  0.00  0.00    +0.000 A 
ATOM     37  C   UNL     1      58.937  73.181  54.741  0.00  0.00    +0.000 A 
ATOM     38  O   UNL     1      58.954  73.773  55.315  0.00  0.00    +0.000 OA
ATOM     39  C   UNL     1      58.513  74.463  55.210  0.00  0.00    +0.000 C 
ATOM     40  C   UNL     1      58.480  73.278  54.061  0.00  0.00    +0.000 A 
ATOM     41  O   UNL     1      58.040  73.967  53.955  0.00  0.00    +0.000 OA
ATOM     42  C   UNL     1      58.056  74.560  54.529  0.00  0.00    +0.000 C 
ATOM     43  C   UNL     1      58.464  72.685  53.487  0.00  0.00    +0.000 A 
ATOM     44  O   UNL     1      58.007  72.783  52.808  0.00  0.00    +0.000 OA
ATOM     45  C   UNL     1      57.991  72.190  52.234  0.00  0.00    +0.000 C 
ATOM     46  C   UNL     1      58.904  71.996  53.593  0.00  0.00    +0.000 A 
ENDROOT
TORSDOF 0
ENDMDL
MODEL 7
REMARK VINA RESULT:   -13.300      1.817      8.327
REMARK INTER + INTRA:         -13.300
REMARK INTER:                 -13.300
REMARK INTRA:                   0.000
REMARK UNBOUND:                 0.000
ROOT
REMARK  Name = rescinnamine
REMARK                            x       y       z     vdW  Elec       q    Type
REMARK                         _______ _______ _______ _____ _____    ______ ____
ATOM      1  C   UNL     1      62.128  63.579  54.108  0.00  0.00    +0.000 C 
ATOM      2  O   UNL     1      62.160  63.530  53.284  0.00  0.00    +0.000 OA
ATOM      3  C   UNL     1      62.027  64.204  52.827  0.00  0.00    +0.000 C 
ATOM      4  C   UNL     1      62.059  64.157  52.004  0.00  0.00    +0.000 C 
ATOM      5  C   UNL     1      61.925  64.829  51.546  0.00  0.00    +0.000 C 
ATOM      6  C   UNL     1      61.760  65.551  51.911  0.00  0.00    +0.000 C 
ATOM      7  C   UNL     1      61.627  66.224  51.454  0.00  0.00    +0.000 C 
ATOM      8  N   UNL     1      61.462  66.945  51.818  0.00  0.00    +0.000 NA
ATOM      9  C   UNL     1      61.328  67.618  51.361  0.00  0.00    +0.000 C 
ATOM     10  C   UNL     1      61.163  68.340  51.726  0.00  0.00    +0.000 C 
ATOM     11  C   UNL     1      61.132  68.387  52.549  0.00  0.00    +0.000 C 
ATOM     12  C   UNL     1      61.265  67.714  53.007  0.00  0.00    +0.000 C 
ATOM     13  N   UNL     1      61.198  67.928  53.801  0.00  0.00    +0.000 NA
ATOM     14  C   UNL     1      61.024  68.733  53.834  0.00  0.00    +0.000 C 
ATOM     15  C   UNL     1      60.982  69.018  53.061  0.00  0.00    +0.000 C 
ATOM     16  C   UNL     1      60.814  69.813  52.921  0.00  0.00    +0.000 C 
ATOM     17  C   UNL     1      60.687  70.325  53.556  0.00  0.00    +0.000 C 
ATOM     18  C   UNL     1      60.728  70.042  54.329  0.00  0.00    +0.000 C 
ATOM     19  O   UNL     1      60.602  70.553  54.963  0.00  0.00    +0.000 OA
ATOM     20  C   UNL     1      60.434  71.349  54.824  0.00  0.00    +0.000 C 
ATOM     21  C   UNL     1      60.897  69.245  54.468  0.00  0.00    +0.000 C 
ATOM     22  C   UNL     1      61.430  66.993  52.641  0.00  0.00    +0.000 C 
ATOM     23  C   UNL     1      61.563  66.319  53.099  0.00  0.00    +0.000 C 
ATOM     24  C   UNL     1      61.728  65.599  52.734  0.00  0.00    +0.000 C 
ATOM     25  C   UNL     1      61.862  64.925  53.191  0.00  0.00    +0.000 C 
ATOM     26  C   UNL     1      61.830  64.973  54.014  0.00  0.00    +0.000 C 
ATOM     27  O   UNL     1      61.963  64.300  54.472  0.00  0.00    +0.000 OA
ATOM     28  O   UNL     1      61.665  65.694  54.380  0.00  0.00    +0.000 OA
ATOM     29  C   UNL     1      61.633  65.742  55.203  0.00  0.00    +0.000 C 
ATOM     30  O   UNL     1      62.224  63.435  51.638  0.00  0.00    +0.000 OA
ATOM     31  C   UNL     1      62.357  62.762  52.096  0.00  0.00    +0.000 C 
ATOM     32  O   UNL     1      62.325  62.810  52.919  0.00  0.00    +0.000 OA
ATOM     33  C   UNL     1      62.522  62.041  51.731  0.00  0.00    +0.000 C 
ATOM     34  C   UNL     1      62.655  61.368  52.189  0.00  0.00    +0.000 C 
ATOM     35  C   UNL     1      62.820  60.646  51.823  0.00  0.00    +0.000 A 
ATOM     36  C   UNL     1      62.954  59.973  52.281  0.00  0.00    +0.000 A 
ATOM     37  C   UNL     1      63.119  59.252  51.915  0.00  0.00    +0.000 A 
ATOM     38  O   UNL     1      63.252  58.579  52.373  0.00  0.00    +0.000 OA
ATOM     39  C   UNL     1      63.417  57.857  52.008  0.00  0.00    +0.000 C 
ATOM     40  C   UNL     1      63.151  59.204  51.092  0.00  0.00    +0.000 A 
ATOM     41  O   UNL     1      63.315  58.483  50.728  0.00  0.00    +0.000 OA
ATOM     42  C   UNL     1      63.449  57.810  51.185  0.00  0.00    +0.000 C 
ATOM     43  C   UNL     1      63.017  59.878  50.635  0.00  0.00    +0.000 A 
ATOM     44  O   UNL     1      63.049  59.829  49.812  0.00  0.00    +0.000 OA
ATOM     45  C   UNL     1      62.916  60.503  49.355  0.00  0.00    +0.000 C 
ATOM     46  C   UNL     1      62.852  60.599  51.000  0.00  0.00    +0.000 A 
ENDROOT
TORSDOF 0
ENDMDL
MODEL 8
REMARK VINA RESULT:   -12.781      3.087      8.203
REMARK INTER + INTRA:         -12.781
REMARK INTER:                 -12.781
REMARK INTRA:                   0.000
REMARK UNBOUND:                 0.000
ROOT
REMARK  Name = rescinnamine
REMARK                            x       y       z     vdW  Elec       q    Type
REMARK                         _______ _______ _______ _____ _____    ______ ____
ATOM      1  C   UNL     1      61.835  65.060  53.192  0.00  0.00    +0.000 C 
ATOM      2  O   UNL     1      62.080  64.651  52.518  0.00  0.00    +0.000 OA
ATOM      3  C   UNL     1      62.094  65.034  51.786  0.00  0.00    +0.000 C 
ATOM      4  C   UNL     1      62.339  64.626  51.112  0.00  0.00    +0.000 C 
ATOM      5  C   UNL     1      62.353  65.007  50.381  0.00  0.00    +0.000 C 
ATOM      6  C   UNL     1      62.121  65.797  50.324  0.00  0.00    +0.000 C 
ATOM      7  C   UNL     1      62.134  66.179  49.593  0.00  0.00    +0.000 C 
ATOM      8  N   UNL     1      61.903  66.969  49.535  0.00  0.00    +0.000 NA
ATOM      9  C   UNL     1      61.916  67.350  48.804  0.00  0.00    +0.000 C 
ATOM     10  C   UNL     1      61.685  68.140  48.747  0.00  0.00    +0.000 C 
ATOM     11  C   UNL     1      61.439  68.548  49.421  0.00  0.00    +0.000 C 
ATOM     12  C   UNL     1      61.426  68.166  50.152  0.00  0.00    +0.000 C 
ATOM     13  N   UNL     1      61.160  68.705  50.716  0.00  0.00    +0.000 NA
ATOM     14  C   UNL     1      61.009  69.421  50.334  0.00  0.00    +0.000 C 
ATOM     15  C   UNL     1      61.181  69.324  49.533  0.00  0.00    +0.000 C 
ATOM     16  C   UNL     1      61.082  69.954  49.010  0.00  0.00    +0.000 C 
ATOM     17  C   UNL     1      60.809  70.681  49.287  0.00  0.00    +0.000 C 
ATOM     18  C   UNL     1      60.636  70.779  50.088  0.00  0.00    +0.000 C 
ATOM     19  O   UNL     1      60.364  71.506  50.366  0.00  0.00    +0.000 OA
ATOM     20  C   UNL     1      60.264  72.137  49.842  0.00  0.00    +0.000 C 
ATOM     21  C   UNL     1      60.736  70.148  50.611  0.00  0.00    +0.000 C 
ATOM     22  C   UNL     1      61.657  67.377  50.209  0.00  0.00    +0.000 C 
ATOM     23  C   UNL     1      61.644  66.994  50.940  0.00  0.00    +0.000 C 
ATOM     24  C   UNL     1      61.876  66.205  50.997  0.00  0.00    +0.000 C 
ATOM     25  C   UNL     1      61.862  65.823  51.728  0.00  0.00    +0.000 C 
ATOM     26  C   UNL     1      61.617  66.230  52.403  0.00  0.00    +0.000 C 
ATOM     27  O   UNL     1      61.603  65.849  53.134  0.00  0.00    +0.000 OA
ATOM     28  O   UNL     1      61.385  67.021  52.345  0.00  0.00    +0.000 OA
ATOM     29  C   UNL     1      61.140  67.428  53.019  0.00  0.00    +0.000 C 
ATOM     30  O   UNL     1      62.571  63.836  51.170  0.00  0.00    +0.000 OA
ATOM     31  C   UNL     1      62.557  63.454  51.901  0.00  0.00    +0.000 C 
ATOM     32  O   UNL     1      62.312  63.862  52.575  0.00  0.00    +0.000 OA
ATOM     33  C   UNL     1      62.789  62.664  51.959  0.00  0.00    +0.000 C 
ATOM     34  C   UNL     1      62.775  62.283  52.690  0.00  0.00    +0.000 C 
ATOM     35  C   UNL     1      63.007  61.493  52.747  0.00  0.00    +0.000 A 
ATOM     36  C   UNL     1      62.994  61.111  53.478  0.00  0.00    +0.000 A 
ATOM     37  C   UNL     1      63.225  60.321  53.535  0.00  0.00    +0.000 A 
ATOM     38  O   UNL     1      63.212  59.940  54.266  0.00  0.00    +0.000 OA
ATOM     39  C   UNL     1      63.443  59.150  54.325  0.00  0.00    +0.000 C 
ATOM     40  C   UNL     1      63.471  59.913  52.861  0.00  0.00    +0.000 A 
ATOM     41  O   UNL     1      63.702  59.124  52.919  0.00  0.00    +0.000 OA
ATOM     42  C   UNL     1      63.689  58.742  53.651  0.00  0.00    +0.000 C 
ATOM     43  C   UNL     1      63.484  60.296  52.130  0.00  0.00    +0.000 A 
ATOM     44  O   UNL     1      63.729  59.887  51.457  0.00  0.00    +0.000 OA
ATOM     45  C   UNL     1      63.743  60.269  50.726  0.00  0.00    +0.000 C 
ATOM     46  C   UNL     1      63.253  61.085  52.073  0.00  0.00    +0.000 A 
ENDROOT
TORSDOF 0
ENDMDL
MODEL 9
REMARK VINA RESULT:   -12.657      2.610      3.594
REMARK INTER + INTRA:         -12.657
REMARK INTER:                 -12.657
REMARK INTRA:                   0.000
REMARK UNBOUND:                 0.000
ROOT
REMARK  Name = rescinnamine
REMARK                            x       y       z     vdW  Elec       q    Type
REMARK                         _______ _______ _______ _____ _____    ______ ____
ATOM      1  C   UNL     1      61.716  65.470  53.071  0.00  0.00    +0.000 C 
ATOM      2  O   UNL     1      61.909  65.487  52.269  0.00  0.00    +0.000 OA
ATOM      3  C   UNL     1      62.230  64.818  51.908  0.00  0.00    +0.000 C 
ATOM      4  C   UNL     1      62.422  64.833  51.106  0.00  0.00    +0.000 C 
ATOM      5  C   UNL     1      62.743  64.165  50.745  0.00  0.00    +0.000 C 
ATOM      6  C   UNL     1      62.872  63.479  51.187  0.00  0.00    +0.000 C 
ATOM      7  C   UNL     1      63.192  62.811  50.826  0.00  0.00    +0.000 C 
ATOM      8  N   UNL     1      63.321  62.125  51.267  0.00  0.00    +0.000 NA
ATOM      9  C   UNL     1      63.642  61.457  50.907  0.00  0.00    +0.000 C 
ATOM     10  C   UNL     1      63.770  60.771  51.348  0.00  0.00    +0.000 C 
ATOM     11  C   UNL     1      63.577  60.755  52.151  0.00  0.00    +0.000 C 
ATOM     12  C   UNL     1      63.256  61.425  52.511  0.00  0.00    +0.000 C 
ATOM     13  N   UNL     1      63.122  61.246  53.305  0.00  0.00    +0.000 NA
ATOM     14  C   UNL     1      63.360  60.467  53.435  0.00  0.00    +0.000 C 
ATOM     15  C   UNL     1      63.641  60.163  52.722  0.00  0.00    +0.000 C 
ATOM     16  C   UNL     1      63.919  59.388  52.685  0.00  0.00    +0.000 C 
ATOM     17  C   UNL     1      63.916  58.915  53.361  0.00  0.00    +0.000 C 
ATOM     18  C   UNL     1      63.634  59.218  54.074  0.00  0.00    +0.000 C 
ATOM     19  O   UNL     1      63.631  58.746  54.750  0.00  0.00    +0.000 OA
ATOM     20  C   UNL     1      63.909  57.970  54.713  0.00  0.00    +0.000 C 
ATOM     21  C   UNL     1      63.356  59.995  54.111  0.00  0.00    +0.000 C 
ATOM     22  C   UNL     1      63.128  62.109  52.070  0.00  0.00    +0.000 C 
ATOM     23  C   UNL     1      62.807  62.779  52.430  0.00  0.00    +0.000 C 
ATOM     24  C   UNL     1      62.679  63.463  51.988  0.00  0.00    +0.000 C 
ATOM     25  C   UNL     1      62.358  64.133  52.349  0.00  0.00    +0.000 C 
ATOM     26  C   UNL     1      62.165  64.117  53.151  0.00  0.00    +0.000 C 
ATOM     27  O   UNL     1      61.844  64.785  53.512  0.00  0.00    +0.000 OA
ATOM     28  O   UNL     1      62.294  63.431  53.593  0.00  0.00    +0.000 OA
ATOM     29  C   UNL     1      62.101  63.416  54.395  0.00  0.00    +0.000 C 
ATOM     30  O   UNL     1      62.294  65.519  50.664  0.00  0.00    +0.000 OA
ATOM     31  C   UNL     1      61.973  66.187  51.025  0.00  0.00    +0.000 C 
ATOM     32  O   UNL     1      61.781  66.172  51.827  0.00  0.00    +0.000 OA
ATOM     33  C   UNL     1      61.845  66.873  50.584  0.00  0.00    +0.000 C 
ATOM     34  C   UNL     1      61.524  67.542  50.945  0.00  0.00    +0.000 C 
ATOM     35  C   UNL     1      61.396  68.227  50.503  0.00  0.00    +0.000 A 
ATOM     36  C   UNL     1      61.075  68.896  50.864  0.00  0.00    +0.000 A 
ATOM     37  C   UNL     1      60.946  69.581  50.422  0.00  0.00    +0.000 A 
ATOM     38  O   UNL     1      60.626  70.250  50.783  0.00  0.00    +0.000 OA
ATOM     39  C   UNL     1      60.497  70.936  50.342  0.00  0.00    +0.000 C 
ATOM     40  C   UNL     1      61.139  69.597  49.620  0.00  0.00    +0.000 A 
ATOM     41  O   UNL     1      61.011  70.282  49.179  0.00  0.00    +0.000 OA
ATOM     42  C   UNL     1      60.690  70.951  49.540  0.00  0.00    +0.000 C 
ATOM     43  C   UNL     1      61.460  68.928  49.259  0.00  0.00    +0.000 A 
ATOM     44  O   UNL     1      61.653  68.945  48.458  0.00  0.00    +0.000 OA
ATOM     45  C   UNL     1      61.974  68.275  48.098  0.00  0.00    +0.000 C 
ATOM     46  C   UNL     1      61.588  68.243  49.701  0.00  0.00    +0.000 A 
ENDROOT
TORSDOF 0
ENDMDL
