MODEL 1
REMARK VINA RESULT:   -16.870      0.000      0.000
REMARK INTER + INTRA:         -16.870
REMARK INTER:                 -16.870
REMARK INTRA:                   0.000
REMARK UNBOUND:                 0.000
ROOT
REMARK  Name = rifabutin
REMARK                            x       y       z     vdW  Elec       q    Type
REMARK                         _______ _______ _______ _____ _____    ______ ____
ATOM      1  C   UNL     1      62.099  66.975  56.239  0.00  0.00    +0.000 C 
ATOM      2  O   UNL     1      62.027  67.426  55.552  0.00  0.00    +0.000 OA
ATOM      3  C   UNL     1      62.028  67.058  54.814  0.00  0.00    +0.000 C 
ATOM      4  C   UNL     1      62.111  66.280  55.087  0.00  0.00    +0.000 C 
ATOM      5  C   UNL     1      62.190  65.449  55.167  0.00  0.00    +0.000 C 
ATOM      6  O   UNL     1      62.266  64.597  55.136  0.00  0.00    +0.000 OA
ATOM      7  C   UNL     1      62.301  63.942  54.576  0.00  0.00    +0.000 C 
ATOM      8  C   UNL     1      62.371  63.127  54.473  0.00  0.00    +0.000 C 
ATOM      9  O   UNL     1      62.218  64.677  54.212  0.00  0.00    +0.000 OA
ATOM     10  C   UNL     1      62.186  64.630  53.395  0.00  0.00    +0.000 A 
ATOM     11  C   UNL     1      62.252  63.814  53.211  0.00  0.00    +0.000 A 
ATOM     12  C   UNL     1      62.323  63.385  53.938  0.00  0.00    +0.000 C 
ATOM     13  O   UNL     1      62.401  62.567  54.013  0.00  0.00    +0.000 OA
ATOM     14  C   UNL     1      62.233  63.605  52.366  0.00  0.00    +0.000 A 
ATOM     15  C   UNL     1      62.151  64.233  51.801  0.00  0.00    +0.000 A 
ATOM     16  C   UNL     1      62.088  65.033  52.039  0.00  0.00    +0.000 A 
ATOM     17  O   UNL     1      62.009  65.618  51.462  0.00  0.00    +0.000 OA
ATOM     18  C   UNL     1      62.104  65.250  52.834  0.00  0.00    +0.000 A 
ATOM     19  C   UNL     1      62.043  66.038  53.068  0.00  0.00    +0.000 C 
ATOM     20  C   UNL     1      62.131  64.051  50.991  0.00  0.00    +0.000 C 
ATOM     21  O   UNL     1      62.051  64.674  50.457  0.00  0.00    +0.000 OA
ATOM     22  C   UNL     1      62.187  63.288  50.688  0.00  0.00    +0.000 C 
ATOM     23  N   UNL     1      62.120  63.635  49.899  0.00  0.00    +0.000 NA
ATOM     24  C   UNL     1      62.041  64.191  49.262  0.00  0.00    +0.000 C 
ATOM     25  O   UNL     1      62.057  63.696  48.603  0.00  0.00    +0.000 OA
ATOM     26  C   UNL     1      61.953  64.978  48.892  0.00  0.00    +0.000 C 
ATOM     27  C   UNL     1      61.938  64.755  48.098  0.00  0.00    +0.000 C 
ATOM     28  C   UNL     1      61.871  65.838  48.800  0.00  0.00    +0.000 C 
ATOM     29  C   UNL     1      61.799  66.705  48.964  0.00  0.00    +0.000 C 
ATOM     30  C   UNL     1      61.748  67.444  49.337  0.00  0.00    +0.000 C 
ATOM     31  C   UNL     1      61.717  68.063  49.891  0.00  0.00    +0.000 C 
ATOM     32  C   UNL     1      61.636  68.685  49.354  0.00  0.00    +0.000 C 
ATOM     33  C   UNL     1      61.706  68.516  50.584  0.00  0.00    +0.000 C 
ATOM     34  O   UNL     1      61.623  69.256  50.228  0.00  0.00    +0.000 OA
ATOM     35  C   UNL     1      61.718  68.776  51.371  0.00  0.00    +0.000 C 
ATOM     36  C   UNL     1      61.638  69.583  51.218  0.00  0.00    +0.000 C 
ATOM     37  C   UNL     1      61.750  68.823  52.197  0.00  0.00    +0.000 C 
ATOM     38  O   UNL     1      61.679  69.643  52.260  0.00  0.00    +0.000 OA
ATOM     39  C   UNL     1      61.802  68.657  53.007  0.00  0.00    +0.000 C 
ATOM     40  C   UNL     1      61.743  69.433  53.280  0.00  0.00    +0.000 C 
ATOM     41  C   UNL     1      61.868  68.287  53.744  0.00  0.00    +0.000 C 
ATOM     42  O   UNL     1      61.827  68.967  54.209  0.00  0.00    +0.000 OA
ATOM     43  C   UNL     1      61.744  69.707  53.852  0.00  0.00    +0.000 C 
ATOM     44  C   UNL     1      61.703  70.386  54.318  0.00  0.00    +0.000 C 
ATOM     45  O   UNL     1      61.702  69.766  53.031  0.00  0.00    +0.000 OA
ATOM     46  C   UNL     1      61.945  67.742  54.359  0.00  0.00    +0.000 C 
ATOM     47  C   UNL     1      61.924  68.281  54.983  0.00  0.00    +0.000 C 
ATOM     48  C   UNL     1      62.268  62.683  51.264  0.00  0.00    +0.000 C 
ATOM     49  N   UNL     1      62.337  61.869  51.147  0.00  0.00    +0.000 NA
ATOM     50  C   UNL     1      62.403  61.509  51.887  0.00  0.00    +0.000 C 
ATOM     51  C   UNL     1      62.463  61.229  52.660  0.00  0.00    +0.000 C 
ATOM     52  C   UNL     1      62.543  60.420  52.801  0.00  0.00    +0.000 C 
ATOM     53  N   UNL     1      62.562  59.891  52.168  0.00  0.00    +0.000 NA
ATOM     54  C   UNL     1      62.642  59.083  52.309  0.00  0.00    +0.000 C 
ATOM     55  C   UNL     1      62.662  58.554  51.676  0.00  0.00    +0.000 C 
ATOM     56  C   UNL     1      62.742  57.745  51.816  0.00  0.00    +0.000 C 
ATOM     57  C   UNL     1      62.602  58.835  50.902  0.00  0.00    +0.000 C 
ATOM     58  C   UNL     1      62.502  60.172  51.395  0.00  0.00    +0.000 C 
ATOM     59  C   UNL     1      62.422  60.981  51.254  0.00  0.00    +0.000 C 
ATOM     60  N   UNL     1      62.374  62.101  52.461  0.00  0.00    +0.000 NA
ATOM     61  C   UNL     1      62.291  62.826  52.077  0.00  0.00    +0.000 C 
ENDROOT
TORSDOF 0
ENDMDL
MODEL 2
REMARK VINA RESULT:   -16.356      2.535      7.049
REMARK INTER + INTRA:         -16.356
REMARK INTER:                 -16.356
REMARK INTRA:                   0.000
REMARK UNBOUND:                 0.000
ROOT
REMARK  Name = rifabutin
REMARK                            x       y       z     vdW  Elec       q    Type
REMARK                         _______ _______ _______ _____ _____    ______ ____
ATOM      1  C   UNL     1      63.900  59.347  53.747  0.00  0.00    +0.000 C 
ATOM      2  O   UNL     1      63.347  59.233  53.146  0.00  0.00    +0.000 OA
ATOM      3  C   UNL     1      62.888  59.865  52.882  0.00  0.00    +0.000 C 
ATOM      4  C   UNL     1      63.203  60.440  53.389  0.00  0.00    +0.000 C 
ATOM      5  C   UNL     1      63.391  61.142  53.808  0.00  0.00    +0.000 C 
ATOM      6  O   UNL     1      63.505  61.908  54.171  0.00  0.00    +0.000 OA
ATOM      7  C   UNL     1      63.217  62.720  54.140  0.00  0.00    +0.000 C 
ATOM      8  C   UNL     1      63.274  63.485  54.445  0.00  0.00    +0.000 C 
ATOM      9  O   UNL     1      62.845  62.222  53.599  0.00  0.00    +0.000 OA
ATOM     10  C   UNL     1      62.279  62.603  53.145  0.00  0.00    +0.000 A 
ATOM     11  C   UNL     1      62.280  63.401  53.403  0.00  0.00    +0.000 A 
ATOM     12  C   UNL     1      62.858  63.478  54.018  0.00  0.00    +0.000 C 
ATOM     13  O   UNL     1      63.040  64.171  54.428  0.00  0.00    +0.000 OA
ATOM     14  C   UNL     1      61.721  63.937  53.006  0.00  0.00    +0.000 A 
ATOM     15  C   UNL     1      61.226  63.617  52.396  0.00  0.00    +0.000 A 
ATOM     16  C   UNL     1      61.265  62.811  52.176  0.00  0.00    +0.000 A 
ATOM     17  O   UNL     1      60.768  62.532  51.579  0.00  0.00    +0.000 OA
ATOM     18  C   UNL     1      61.788  62.288  52.541  0.00  0.00    +0.000 A 
ATOM     19  C   UNL     1      61.826  61.493  52.324  0.00  0.00    +0.000 C 
ATOM     20  C   UNL     1      60.687  64.115  52.007  0.00  0.00    +0.000 C 
ATOM     21  O   UNL     1      60.213  63.786  51.417  0.00  0.00    +0.000 OA
ATOM     22  C   UNL     1      60.595  64.915  52.172  0.00  0.00    +0.000 C 
ATOM     23  N   UNL     1      59.987  64.936  51.558  0.00  0.00    +0.000 NA
ATOM     24  C   UNL     1      59.452  64.709  50.939  0.00  0.00    +0.000 C 
ATOM     25  O   UNL     1      59.069  65.422  50.778  0.00  0.00    +0.000 OA
ATOM     26  C   UNL     1      59.068  64.167  50.371  0.00  0.00    +0.000 C 
ATOM     27  C   UNL     1      58.547  64.695  50.009  0.00  0.00    +0.000 C 
ATOM     28  C   UNL     1      58.867  63.444  49.932  0.00  0.00    +0.000 C 
ATOM     29  C   UNL     1      58.844  62.610  49.639  0.00  0.00    +0.000 C 
ATOM     30  C   UNL     1      58.988  61.801  49.525  0.00  0.00    +0.000 C 
ATOM     31  C   UNL     1      59.278  61.024  49.570  0.00  0.00    +0.000 C 
ATOM     32  C   UNL     1      58.803  60.697  48.980  0.00  0.00    +0.000 C 
ATOM     33  C   UNL     1      59.692  60.335  49.770  0.00  0.00    +0.000 C 
ATOM     34  O   UNL     1      59.325  59.828  49.231  0.00  0.00    +0.000 OA
ATOM     35  C   UNL     1      60.202  59.778  50.111  0.00  0.00    +0.000 C 
ATOM     36  C   UNL     1      59.967  59.127  49.661  0.00  0.00    +0.000 C 
ATOM     37  C   UNL     1      60.774  59.392  50.570  0.00  0.00    +0.000 C 
ATOM     38  O   UNL     1      60.688  58.641  50.239  0.00  0.00    +0.000 OA
ATOM     39  C   UNL     1      61.368  59.202  51.115  0.00  0.00    +0.000 C 
ATOM     40  C   UNL     1      61.436  58.402  50.926  0.00  0.00    +0.000 C 
ATOM     41  C   UNL     1      61.943  59.223  51.709  0.00  0.00    +0.000 C 
ATOM     42  O   UNL     1      62.161  58.428  51.675  0.00  0.00    +0.000 OA
ATOM     43  C   UNL     1      61.793  57.922  51.136  0.00  0.00    +0.000 C 
ATOM     44  C   UNL     1      62.012  57.128  51.102  0.00  0.00    +0.000 C 
ATOM     45  O   UNL     1      61.208  58.212  50.632  0.00  0.00    +0.000 OA
ATOM     46  C   UNL     1      62.461  59.450  52.311  0.00  0.00    +0.000 C 
ATOM     47  C   UNL     1      62.812  58.714  52.432  0.00  0.00    +0.000 C 
ATOM     48  C   UNL     1      61.095  65.211  52.778  0.00  0.00    +0.000 C 
ATOM     49  N   UNL     1      61.142  65.980  53.075  0.00  0.00    +0.000 NA
ATOM     50  C   UNL     1      61.718  65.991  53.666  0.00  0.00    +0.000 C 
ATOM     51  C   UNL     1      62.305  65.917  54.242  0.00  0.00    +0.000 C 
ATOM     52  C   UNL     1      62.532  66.573  54.685  0.00  0.00    +0.000 C 
ATOM     53  N   UNL     1      62.172  67.305  54.555  0.00  0.00    +0.000 NA
ATOM     54  C   UNL     1      62.399  67.961  54.999  0.00  0.00    +0.000 C 
ATOM     55  C   UNL     1      62.040  68.692  54.867  0.00  0.00    +0.000 C 
ATOM     56  C   UNL     1      62.267  69.349  55.312  0.00  0.00    +0.000 C 
ATOM     57  C   UNL     1      61.453  68.765  54.292  0.00  0.00    +0.000 C 
ATOM     58  C   UNL     1      61.585  67.378  53.979  0.00  0.00    +0.000 C 
ATOM     59  C   UNL     1      61.358  66.721  53.535  0.00  0.00    +0.000 C 
ATOM     60  N   UNL     1      62.026  65.228  53.734  0.00  0.00    +0.000 NA
ATOM     61  C   UNL     1      61.642  64.747  53.187  0.00  0.00    +0.000 C 
ENDROOT
TORSDOF 0
ENDMDL
MODEL 3
REMARK VINA RESULT:   -16.057      1.407      4.222
REMARK INTER + INTRA:         -16.057
REMARK INTER:                 -16.057
REMARK INTRA:                   0.000
REMARK UNBOUND:                 0.000
ROOT
REMARK  Name = rifabutin
REMARK                            x       y       z     vdW  Elec       q    Type
REMARK                         _______ _______ _______ _____ _____    ______ ____
ATOM      1  C   UNL     1      62.119  67.592  48.098  0.00  0.00    +0.000 C 
ATOM      2  O   UNL     1      62.038  67.707  48.910  0.00  0.00    +0.000 OA
ATOM      3  C   UNL     1      62.122  67.071  49.429  0.00  0.00    +0.000 C 
ATOM      4  C   UNL     1      62.276  66.492  48.856  0.00  0.00    +0.000 C 
ATOM      5  C   UNL     1      62.442  65.784  48.437  0.00  0.00    +0.000 C 
ATOM      6  O   UNL     1      62.614  65.012  48.110  0.00  0.00    +0.000 OA
ATOM      7  C   UNL     1      62.754  64.195  48.346  0.00  0.00    +0.000 C 
ATOM      8  C   UNL     1      62.921  63.425  48.101  0.00  0.00    +0.000 C 
ATOM      9  O   UNL     1      62.611  64.698  48.984  0.00  0.00    +0.000 OA
ATOM     10  C   UNL     1      62.632  64.315  49.707  0.00  0.00    +0.000 A 
ATOM     11  C   UNL     1      62.800  63.511  49.535  0.00  0.00    +0.000 A 
ATOM     12  C   UNL     1      62.876  63.432  48.695  0.00  0.00    +0.000 C 
ATOM     13  O   UNL     1      63.040  62.735  48.286  0.00  0.00    +0.000 OA
ATOM     14  C   UNL     1      62.854  62.972  50.217  0.00  0.00    +0.000 A 
ATOM     15  C   UNL     1      62.735  63.296  50.992  0.00  0.00    +0.000 A 
ATOM     16  C   UNL     1      62.570  64.108  51.109  0.00  0.00    +0.000 A 
ATOM     17  O   UNL     1      62.460  64.389  51.877  0.00  0.00    +0.000 OA
ATOM     18  C   UNL     1      62.515  64.633  50.476  0.00  0.00    +0.000 A 
ATOM     19  C   UNL     1      62.353  65.433  50.592  0.00  0.00    +0.000 C 
ATOM     20  C   UNL     1      62.783  62.795  51.653  0.00  0.00    +0.000 C 
ATOM     21  O   UNL     1      62.665  63.127  52.398  0.00  0.00    +0.000 OA
ATOM     22  C   UNL     1      62.941  61.989  51.611  0.00  0.00    +0.000 C 
ATOM     23  N   UNL     1      62.882  61.969  52.473  0.00  0.00    +0.000 NA
ATOM     24  C   UNL     1      62.779  62.199  53.284  0.00  0.00    +0.000 C 
ATOM     25  O   UNL     1      62.888  61.482  53.677  0.00  0.00    +0.000 OA
ATOM     26  C   UNL     1      62.626  62.745  53.949  0.00  0.00    +0.000 C 
ATOM     27  C   UNL     1      62.682  62.215  54.578  0.00  0.00    +0.000 C 
ATOM     28  C   UNL     1      62.453  63.473  54.391  0.00  0.00    +0.000 C 
ATOM     29  C   UNL     1      62.276  64.314  54.603  0.00  0.00    +0.000 C 
ATOM     30  C   UNL     1      62.122  65.129  54.571  0.00  0.00    +0.000 C 
ATOM     31  C   UNL     1      61.989  65.911  54.325  0.00  0.00    +0.000 C 
ATOM     32  C   UNL     1      61.871  66.241  55.072  0.00  0.00    +0.000 C 
ATOM     33  C   UNL     1      61.888  66.604  53.883  0.00  0.00    +0.000 C 
ATOM     34  O   UNL     1      61.743  67.115  54.515  0.00  0.00    +0.000 OA
ATOM     35  C   UNL     1      61.824  67.164  53.275  0.00  0.00    +0.000 C 
ATOM     36  C   UNL     1      61.663  67.820  53.751  0.00  0.00    +0.000 C 
ATOM     37  C   UNL     1      61.803  67.552  52.544  0.00  0.00    +0.000 C 
ATOM     38  O   UNL     1      61.637  68.308  52.828  0.00  0.00    +0.000 OA
ATOM     39  C   UNL     1      61.825  67.741  51.738  0.00  0.00    +0.000 C 
ATOM     40  C   UNL     1      61.665  68.547  51.813  0.00  0.00    +0.000 C 
ATOM     41  C   UNL     1      61.889  67.719  50.913  0.00  0.00    +0.000 C 
ATOM     42  O   UNL     1      61.746  68.520  50.773  0.00  0.00    +0.000 OA
ATOM     43  C   UNL     1      61.601  69.030  51.406  0.00  0.00    +0.000 C 
ATOM     44  C   UNL     1      61.458  69.830  51.266  0.00  0.00    +0.000 C 
ATOM     45  O   UNL     1      61.601  68.739  52.178  0.00  0.00    +0.000 OA
ATOM     46  C   UNL     1      61.991  67.490  50.127  0.00  0.00    +0.000 C 
ATOM     47  C   UNL     1      61.873  68.231  49.784  0.00  0.00    +0.000 C 
ATOM     48  C   UNL     1      63.055  61.690  50.835  0.00  0.00    +0.000 C 
ATOM     49  N   UNL     1      63.221  60.916  50.602  0.00  0.00    +0.000 NA
ATOM     50  C   UNL     1      63.283  60.904  49.779  0.00  0.00    +0.000 C 
ATOM     51  C   UNL     1      63.329  60.977  48.959  0.00  0.00    +0.000 C 
ATOM     52  C   UNL     1      63.490  60.316  48.494  0.00  0.00    +0.000 C 
ATOM     53  N   UNL     1      63.606  59.580  48.849  0.00  0.00    +0.000 NA
ATOM     54  C   UNL     1      63.767  58.918  48.385  0.00  0.00    +0.000 C 
ATOM     55  C   UNL     1      63.883  58.183  48.741  0.00  0.00    +0.000 C 
ATOM     56  C   UNL     1      64.044  57.521  48.275  0.00  0.00    +0.000 C 
ATOM     57  C   UNL     1      63.837  58.110  49.561  0.00  0.00    +0.000 C 
ATOM     58  C   UNL     1      63.560  59.507  49.670  0.00  0.00    +0.000 C 
ATOM     59  C   UNL     1      63.399  60.169  50.135  0.00  0.00    +0.000 C 
ATOM     60  N   UNL     1      63.156  61.672  49.504  0.00  0.00    +0.000 NA
ATOM     61  C   UNL     1      63.015  62.157  50.155  0.00  0.00    +0.000 C 
ENDROOT
TORSDOF 0
ENDMDL
MODEL 4
REMARK VINA RESULT:   -15.819      1.202      1.710
REMARK INTER + INTRA:         -15.819
REMARK INTER:                 -15.819
REMARK INTRA:                   0.000
REMARK UNBOUND:                 0.000
ROOT
REMARK  Name = rifabutin
REMARK                            x       y       z     vdW  Elec       q    Type
REMARK                         _______ _______ _______ _____ _____    ______ ____
ATOM      1  C   UNL     1      61.628  68.357  54.910  0.00  0.00    +0.000 C 
ATOM      2  O   UNL     1      61.375  68.475  54.134  0.00  0.00    +0.000 OA
ATOM      3  C   UNL     1      61.377  67.848  53.598  0.00  0.00    +0.000 C 
ATOM      4  C   UNL     1      61.670  67.271  54.116  0.00  0.00    +0.000 C 
ATOM      5  C   UNL     1      61.949  66.569  54.479  0.00  0.00    +0.000 C 
ATOM      6  O   UNL     1      62.218  65.802  54.748  0.00  0.00    +0.000 OA
ATOM      7  C   UNL     1      62.341  64.994  54.474  0.00  0.00    +0.000 C 
ATOM      8  C   UNL     1      62.586  64.231  54.666  0.00  0.00    +0.000 C 
ATOM      9  O   UNL     1      62.048  65.496  53.889  0.00  0.00    +0.000 OA
ATOM     10  C   UNL     1      61.935  65.121  53.170  0.00  0.00    +0.000 A 
ATOM     11  C   UNL     1      62.168  64.324  53.290  0.00  0.00    +0.000 A 
ATOM     12  C   UNL     1      62.420  64.241  54.095  0.00  0.00    +0.000 C 
ATOM     13  O   UNL     1      62.694  63.548  54.448  0.00  0.00    +0.000 OA
ATOM     14  C   UNL     1      62.102  63.794  52.602  0.00  0.00    +0.000 A 
ATOM     15  C   UNL     1      61.812  64.119  51.874  0.00  0.00    +0.000 A 
ATOM     16  C   UNL     1      61.593  64.923  51.808  0.00  0.00    +0.000 A 
ATOM     17  O   UNL     1      61.314  65.206  51.084  0.00  0.00    +0.000 OA
ATOM     18  C   UNL     1      61.648  65.440  52.448  0.00  0.00    +0.000 A 
ATOM     19  C   UNL     1      61.431  66.233  52.383  0.00  0.00    +0.000 C 
ATOM     20  C   UNL     1      61.744  63.627  51.208  0.00  0.00    +0.000 C 
ATOM     21  O   UNL     1      61.460  63.960  50.509  0.00  0.00    +0.000 OA
ATOM     22  C   UNL     1      61.941  62.828  51.202  0.00  0.00    +0.000 C 
ATOM     23  N   UNL     1      61.706  62.813  50.370  0.00  0.00    +0.000 NA
ATOM     24  C   UNL     1      61.428  63.045  49.602  0.00  0.00    +0.000 C 
ATOM     25  O   UNL     1      61.484  62.337  49.182  0.00  0.00    +0.000 OA
ATOM     26  C   UNL     1      61.117  63.590  48.994  0.00  0.00    +0.000 C 
ATOM     27  C   UNL     1      61.064  63.068  48.356  0.00  0.00    +0.000 C 
ATOM     28  C   UNL     1      60.826  64.314  48.610  0.00  0.00    +0.000 C 
ATOM     29  C   UNL     1      60.574  65.148  48.454  0.00  0.00    +0.000 C 
ATOM     30  C   UNL     1      60.395  65.954  48.532  0.00  0.00    +0.000 C 
ATOM     31  C   UNL     1      60.283  66.727  48.814  0.00  0.00    +0.000 C 
ATOM     32  C   UNL     1      59.999  67.058  48.113  0.00  0.00    +0.000 C 
ATOM     33  C   UNL     1      60.246  67.411  49.279  0.00  0.00    +0.000 C 
ATOM     34  O   UNL     1      59.953  67.920  48.700  0.00  0.00    +0.000 OA
ATOM     35  C   UNL     1      60.286  67.962  49.897  0.00  0.00    +0.000 C 
ATOM     36  C   UNL     1      60.003  68.614  49.477  0.00  0.00    +0.000 C 
ATOM     37  C   UNL     1      60.400  68.342  50.624  0.00  0.00    +0.000 C 
ATOM     38  O   UNL     1      60.147  69.092  50.395  0.00  0.00    +0.000 OA
ATOM     39  C   UNL     1      60.581  68.525  51.412  0.00  0.00    +0.000 C 
ATOM     40  C   UNL     1      60.374  69.324  51.386  0.00  0.00    +0.000 C 
ATOM     41  C   UNL     1      60.815  68.499  52.205  0.00  0.00    +0.000 C 
ATOM     42  O   UNL     1      60.670  69.291  52.386  0.00  0.00    +0.000 OA
ATOM     43  C   UNL     1      60.376  69.800  51.806  0.00  0.00    +0.000 C 
ATOM     44  C   UNL     1      60.231  70.590  51.987  0.00  0.00    +0.000 C 
ATOM     45  O   UNL     1      60.228  69.516  51.045  0.00  0.00    +0.000 OA
ATOM     46  C   UNL     1      61.087  68.267  52.949  0.00  0.00    +0.000 C 
ATOM     47  C   UNL     1      61.011  68.999  53.322  0.00  0.00    +0.000 C 
ATOM     48  C   UNL     1      62.226  62.528  51.932  0.00  0.00    +0.000 C 
ATOM     49  N   UNL     1      62.469  61.760  52.111  0.00  0.00    +0.000 NA
ATOM     50  C   UNL     1      62.701  61.744  52.904  0.00  0.00    +0.000 C 
ATOM     51  C   UNL     1      62.912  61.812  53.698  0.00  0.00    +0.000 C 
ATOM     52  C   UNL     1      63.193  61.154  54.108  0.00  0.00    +0.000 C 
ATOM     53  N   UNL     1      63.264  60.427  53.723  0.00  0.00    +0.000 NA
ATOM     54  C   UNL     1      63.546  59.769  54.132  0.00  0.00    +0.000 C 
ATOM     55  C   UNL     1      63.616  59.043  53.747  0.00  0.00    +0.000 C 
ATOM     56  C   UNL     1      63.898  58.384  54.157  0.00  0.00    +0.000 C 
ATOM     57  C   UNL     1      63.405  58.975  52.953  0.00  0.00    +0.000 C 
ATOM     58  C   UNL     1      63.053  60.360  52.928  0.00  0.00    +0.000 C 
ATOM     59  C   UNL     1      62.771  61.018  52.519  0.00  0.00    +0.000 C 
ATOM     60  N   UNL     1      62.600  62.502  53.213  0.00  0.00    +0.000 NA
ATOM     61  C   UNL     1      62.307  62.987  52.614  0.00  0.00    +0.000 C 
ENDROOT
TORSDOF 0
ENDMDL
MODEL 5
REMARK VINA RESULT:   -15.750      2.131      4.670
REMARK INTER + INTRA:         -15.750
REMARK INTER:                 -15.750
REMARK INTRA:                   0.000
REMARK UNBOUND:                 0.000
ROOT
REMARK  Name = rifabutin
REMARK                            x       y       z     vdW  Elec       q    Type
REMARK                         _______ _______ _______ _____ _____    ______ ____
ATOM      1  C   UNL     1      58.610  67.670  48.859  0.00  0.00    +0.000 C 
ATOM      2  O   UNL     1      58.680  68.264  49.426  0.00  0.00    +0.000 OA
ATOM      3  C   UNL     1      59.132  68.137  50.105  0.00  0.00    +0.000 C 
ATOM      4  C   UNL     1      59.368  67.362  49.928  0.00  0.00    +0.000 C 
ATOM      5  C   UNL     1      59.703  66.594  49.924  0.00  0.00    +0.000 C 
ATOM      6  O   UNL     1      60.091  65.837  50.020  0.00  0.00    +0.000 OA
ATOM      7  C   UNL     1      60.599  65.402  50.565  0.00  0.00    +0.000 C 
ATOM      8  C   UNL     1      60.998  64.698  50.721  0.00  0.00    +0.000 C 
ATOM      9  O   UNL     1      60.417  66.163  50.826  0.00  0.00    +0.000 OA
ATOM     10  C   UNL     1      60.758  66.346  51.547  0.00  0.00    +0.000 A 
ATOM     11  C   UNL     1      61.190  65.663  51.775  0.00  0.00    +0.000 A 
ATOM     12  C   UNL     1      61.094  65.077  51.170  0.00  0.00    +0.000 C 
ATOM     13  O   UNL     1      61.425  64.322  51.170  0.00  0.00    +0.000 OA
ATOM     14  C   UNL     1      61.613  65.709  52.535  0.00  0.00    +0.000 A 
ATOM     15  C   UNL     1      61.557  66.428  52.980  0.00  0.00    +0.000 A 
ATOM     16  C   UNL     1      61.112  67.081  52.707  0.00  0.00    +0.000 A 
ATOM     17  O   UNL     1      61.079  67.766  53.167  0.00  0.00    +0.000 OA
ATOM     18  C   UNL     1      60.705  67.057  51.991  0.00  0.00    +0.000 A 
ATOM     19  C   UNL     1      60.265  67.701  51.722  0.00  0.00    +0.000 C 
ATOM     20  C   UNL     1      61.955  66.487  53.707  0.00  0.00    +0.000 C 
ATOM     21  O   UNL     1      61.890  67.194  54.127  0.00  0.00    +0.000 OA
ATOM     22  C   UNL     1      62.410  65.886  54.035  0.00  0.00    +0.000 C 
ATOM     23  N   UNL     1      62.566  66.415  54.701  0.00  0.00    +0.000 NA
ATOM     24  C   UNL     1      62.570  67.090  55.216  0.00  0.00    +0.000 C 
ATOM     25  O   UNL     1      63.047  66.826  55.835  0.00  0.00    +0.000 OA
ATOM     26  C   UNL     1      62.369  67.899  55.478  0.00  0.00    +0.000 C 
ATOM     27  C   UNL     1      62.778  67.917  56.194  0.00  0.00    +0.000 C 
ATOM     28  C   UNL     1      62.025  68.697  55.489  0.00  0.00    +0.000 C 
ATOM     29  C   UNL     1      61.579  69.431  55.276  0.00  0.00    +0.000 C 
ATOM     30  C   UNL     1      61.107  69.993  54.888  0.00  0.00    +0.000 C 
ATOM     31  C   UNL     1      60.618  70.396  54.352  0.00  0.00    +0.000 C 
ATOM     32  C   UNL     1      60.554  71.102  54.773  0.00  0.00    +0.000 C 
ATOM     33  C   UNL     1      60.146  70.612  53.706  0.00  0.00    +0.000 C 
ATOM     34  O   UNL     1      59.960  71.375  53.959  0.00  0.00    +0.000 OA
ATOM     35  C   UNL     1      59.724  70.628  52.993  0.00  0.00    +0.000 C 
ATOM     36  C   UNL     1      59.427  71.396  53.062  0.00  0.00    +0.000 C 
ATOM     37  C   UNL     1      59.379  70.444  52.263  0.00  0.00    +0.000 C 
ATOM     38  O   UNL     1      58.993  71.163  52.142  0.00  0.00    +0.000 OA
ATOM     39  C   UNL     1      59.135  70.071  51.564  0.00  0.00    +0.000 C 
ATOM     40  C   UNL     1      58.686  70.694  51.262  0.00  0.00    +0.000 C 
ATOM     41  C   UNL     1      59.009  69.536  50.946  0.00  0.00    +0.000 C 
ATOM     42  O   UNL     1      58.527  70.019  50.482  0.00  0.00    +0.000 OA
ATOM     43  C   UNL     1      58.341  70.782  50.737  0.00  0.00    +0.000 C 
ATOM     44  C   UNL     1      57.859  71.264  50.273  0.00  0.00    +0.000 C 
ATOM     45  O   UNL     1      58.637  71.061  51.454  0.00  0.00    +0.000 OA
ATOM     46  C   UNL     1      59.009  68.876  50.450  0.00  0.00    +0.000 C 
ATOM     47  C   UNL     1      58.527  69.189  49.858  0.00  0.00    +0.000 C 
ATOM     48  C   UNL     1      62.451  65.183  53.577  0.00  0.00    +0.000 C 
ATOM     49  N   UNL     1      62.856  64.484  53.746  0.00  0.00    +0.000 NA
ATOM     50  C   UNL     1      62.725  63.956  53.125  0.00  0.00    +0.000 C 
ATOM     51  C   UNL     1      62.545  63.492  52.467  0.00  0.00    +0.000 C 
ATOM     52  C   UNL     1      62.846  62.726  52.409  0.00  0.00    +0.000 C 
ATOM     53  N   UNL     1      63.328  62.425  53.008  0.00  0.00    +0.000 NA
ATOM     54  C   UNL     1      63.629  61.660  52.949  0.00  0.00    +0.000 C 
ATOM     55  C   UNL     1      64.110  61.360  53.548  0.00  0.00    +0.000 C 
ATOM     56  C   UNL     1      64.411  60.593  53.490  0.00  0.00    +0.000 C 
ATOM     57  C   UNL     1      64.289  61.824  54.206  0.00  0.00    +0.000 C 
ATOM     58  C   UNL     1      63.507  62.891  53.665  0.00  0.00    +0.000 C 
ATOM     59  C   UNL     1      63.205  63.656  53.723  0.00  0.00    +0.000 C 
ATOM     60  N   UNL     1      62.239  64.331  52.573  0.00  0.00    +0.000 NA
ATOM     61  C   UNL     1      62.070  65.088  52.852  0.00  0.00    +0.000 C 
ENDROOT
TORSDOF 0
ENDMDL
MODEL 6
REMARK VINA RESULT:   -15.579      1.795      2.190
REMARK INTER + INTRA:         -15.579
REMARK INTER:                 -15.579
REMARK INTRA:                   0.000
REMARK UNBOUND:                 0.000
ROOT
REMARK  Name = rifabutin
REMARK                            x       y       z     vdW  Elec       q    Type
REMARK                         _______ _______ _______ _____ _____    ______ ____
ATOM      1  C   UNL     1      62.364  68.849  56.020  0.00  0.00    +0.000 C 
ATOM      2  O   UNL     1      61.839  69.156  55.463  0.00  0.00    +0.000 OA
ATOM      3  C   UNL     1      61.605  68.697  54.819  0.00  0.00    +0.000 C 
ATOM      4  C   UNL     1      62.045  68.021  55.009  0.00  0.00    +0.000 C 
ATOM      5  C   UNL     1      62.407  67.265  55.033  0.00  0.00    +0.000 C 
ATOM      6  O   UNL     1      62.721  66.472  54.962  0.00  0.00    +0.000 OA
ATOM      7  C   UNL     1      62.689  65.776  54.454  0.00  0.00    +0.000 C 
ATOM      8  C   UNL     1      62.952  65.005  54.324  0.00  0.00    +0.000 C 
ATOM      9  O   UNL     1      62.219  66.397  54.185  0.00  0.00    +0.000 OA
ATOM     10  C   UNL     1      61.820  66.222  53.491  0.00  0.00    +0.000 A 
ATOM     11  C   UNL     1      62.042  65.438  53.293  0.00  0.00    +0.000 A 
ATOM     12  C   UNL     1      62.579  65.158  53.885  0.00  0.00    +0.000 C 
ATOM     13  O   UNL     1      62.933  64.413  53.906  0.00  0.00    +0.000 OA
ATOM     14  C   UNL     1      61.691  65.109  52.567  0.00  0.00    +0.000 A 
ATOM     15  C   UNL     1      61.160  65.599  52.122  0.00  0.00    +0.000 A 
ATOM     16  C   UNL     1      60.972  66.377  52.365  0.00  0.00    +0.000 A 
ATOM     17  O   UNL     1      60.451  66.826  51.909  0.00  0.00    +0.000 OA
ATOM     18  C   UNL     1      61.294  66.705  53.049  0.00  0.00    +0.000 A 
ATOM     19  C   UNL     1      61.108  67.473  53.289  0.00  0.00    +0.000 C 
ATOM     20  C   UNL     1      60.817  65.300  51.427  0.00  0.00    +0.000 C 
ATOM     21  O   UNL     1      60.303  65.790  51.008  0.00  0.00    +0.000 OA
ATOM     22  C   UNL     1      60.957  64.545  51.131  0.00  0.00    +0.000 C 
ATOM     23  N   UNL     1      60.420  64.739  50.482  0.00  0.00    +0.000 NA
ATOM     24  C   UNL     1      59.880  65.151  49.972  0.00  0.00    +0.000 C 
ATOM     25  O   UNL     1      59.735  64.587  49.388  0.00  0.00    +0.000 OA
ATOM     26  C   UNL     1      59.387  65.820  49.700  0.00  0.00    +0.000 C 
ATOM     27  C   UNL     1      59.068  65.485  49.017  0.00  0.00    +0.000 C 
ATOM     28  C   UNL     1      59.007  66.601  49.668  0.00  0.00    +0.000 C 
ATOM     29  C   UNL     1      58.755  67.429  49.852  0.00  0.00    +0.000 C 
ATOM     30  C   UNL     1      58.660  68.173  50.207  0.00  0.00    +0.000 C 
ATOM     31  C   UNL     1      58.703  68.834  50.708  0.00  0.00    +0.000 C 
ATOM     32  C   UNL     1      58.189  69.323  50.287  0.00  0.00    +0.000 C 
ATOM     33  C   UNL     1      58.882  69.365  51.318  0.00  0.00    +0.000 C 
ATOM     34  O   UNL     1      58.414  69.992  51.056  0.00  0.00    +0.000 OA
ATOM     35  C   UNL     1      59.183  69.732  51.997  0.00  0.00    +0.000 C 
ATOM     36  C   UNL     1      58.793  70.454  51.911  0.00  0.00    +0.000 C 
ATOM     37  C   UNL     1      59.586  69.909  52.699  0.00  0.00    +0.000 C 
ATOM     38  O   UNL     1      59.302  70.677  52.795  0.00  0.00    +0.000 OA
ATOM     39  C   UNL     1      60.064  69.885  53.375  0.00  0.00    +0.000 C 
ATOM     40  C   UNL     1      59.903  70.647  53.647  0.00  0.00    +0.000 C 
ATOM     41  C   UNL     1      60.583  69.662  53.979  0.00  0.00    +0.000 C 
ATOM     42  O   UNL     1      60.558  70.366  54.409  0.00  0.00    +0.000 OA
ATOM     43  C   UNL     1      60.089  70.993  54.145  0.00  0.00    +0.000 C 
ATOM     44  C   UNL     1      60.064  71.696  54.575  0.00  0.00    +0.000 C 
ATOM     45  O   UNL     1      59.647  70.915  53.454  0.00  0.00    +0.000 OA
ATOM     46  C   UNL     1      61.108  69.256  54.470  0.00  0.00    +0.000 C 
ATOM     47  C   UNL     1      61.218  69.855  55.027  0.00  0.00    +0.000 C 
ATOM     48  C   UNL     1      61.485  64.078  51.586  0.00  0.00    +0.000 C 
ATOM     49  N   UNL     1      61.740  63.306  51.444  0.00  0.00    +0.000 NA
ATOM     50  C   UNL     1      62.257  63.092  52.051  0.00  0.00    +0.000 C 
ATOM     51  C   UNL     1      62.761  62.957  52.691  0.00  0.00    +0.000 C 
ATOM     52  C   UNL     1      63.145  62.232  52.767  0.00  0.00    +0.000 C 
ATOM     53  N   UNL     1      63.027  61.641  52.204  0.00  0.00    +0.000 NA
ATOM     54  C   UNL     1      63.411  60.915  52.280  0.00  0.00    +0.000 C 
ATOM     55  C   UNL     1      63.292  60.325  51.717  0.00  0.00    +0.000 C 
ATOM     56  C   UNL     1      63.677  59.598  51.793  0.00  0.00    +0.000 C 
ATOM     57  C   UNL     1      62.789  60.459  51.078  0.00  0.00    +0.000 C 
ATOM     58  C   UNL     1      62.523  61.776  51.564  0.00  0.00    +0.000 C 
ATOM     59  C   UNL     1      62.139  62.502  51.488  0.00  0.00    +0.000 C 
ATOM     60  N   UNL     1      62.321  63.733  52.568  0.00  0.00    +0.000 NA
ATOM     61  C   UNL     1      61.845  64.341  52.281  0.00  0.00    +0.000 C 
ENDROOT
TORSDOF 0
ENDMDL
MODEL 7
REMARK VINA RESULT:   -15.467      2.617      7.044
REMARK INTER + INTRA:         -15.467
REMARK INTER:                 -15.467
REMARK INTRA:                   0.000
REMARK UNBOUND:                 0.000
ROOT
REMARK  Name = rifabutin
REMARK                            x       y       z     vdW  Elec       q    Type
REMARK                         _______ _______ _______ _____ _____    ______ ____
ATOM      1  C   UNL     1      64.550  62.379  54.479  0.00  0.00    +0.000 C 
ATOM      2  O   UNL     1      64.130  61.730  54.192  0.00  0.00    +0.000 OA
ATOM      3  C   UNL     1      63.471  61.845  53.709  0.00  0.00    +0.000 C 
ATOM      4  C   UNL     1      63.493  62.674  53.701  0.00  0.00    +0.000 C 
ATOM      5  C   UNL     1      63.354  63.491  53.575  0.00  0.00    +0.000 C 
ATOM      6  O   UNL     1      63.124  64.293  53.383  0.00  0.00    +0.000 OA
ATOM      7  C   UNL     1      62.533  64.739  52.940  0.00  0.00    +0.000 C 
ATOM      8  C   UNL     1      62.257  65.483  52.717  0.00  0.00    +0.000 C 
ATOM      9  O   UNL     1      62.431  63.922  52.890  0.00  0.00    +0.000 OA
ATOM     10  C   UNL     1      61.789  63.707  52.429  0.00  0.00    +0.000 A 
ATOM     11  C   UNL     1      61.449  64.426  52.160  0.00  0.00    +0.000 A 
ATOM     12  C   UNL     1      61.907  65.066  52.474  0.00  0.00    +0.000 C 
ATOM     13  O   UNL     1      61.766  65.869  52.348  0.00  0.00    +0.000 OA
ATOM     14  C   UNL     1      60.747  64.355  51.650  0.00  0.00    +0.000 A 
ATOM     15  C   UNL     1      60.463  63.577  51.467  0.00  0.00    +0.000 A 
ATOM     16  C   UNL     1      60.840  62.891  51.761  0.00  0.00    +0.000 A 
ATOM     17  O   UNL     1      60.537  62.149  51.563  0.00  0.00    +0.000 OA
ATOM     18  C   UNL     1      61.506  62.937  52.245  0.00  0.00    +0.000 A 
ATOM     19  C   UNL     1      61.877  62.260  52.536  0.00  0.00    +0.000 C 
ATOM     20  C   UNL     1      59.794  63.492  50.982  0.00  0.00    +0.000 C 
ATOM     21  O   UNL     1      59.533  62.729  50.814  0.00  0.00    +0.000 OA
ATOM     22  C   UNL     1      59.376  64.122  50.659  0.00  0.00    +0.000 C 
ATOM     23  N   UNL     1      58.851  63.540  50.294  0.00  0.00    +0.000 NA
ATOM     24  C   UNL     1      58.494  62.807  50.055  0.00  0.00    +0.000 C 
ATOM     25  O   UNL     1      57.866  63.069  49.590  0.00  0.00    +0.000 OA
ATOM     26  C   UNL     1      58.399  61.940  50.012  0.00  0.00    +0.000 C 
ATOM     27  C   UNL     1      57.732  61.899  49.527  0.00  0.00    +0.000 C 
ATOM     28  C   UNL     1      58.536  61.090  50.137  0.00  0.00    +0.000 C 
ATOM     29  C   UNL     1      58.873  60.317  50.405  0.00  0.00    +0.000 C 
ATOM     30  C   UNL     1      59.339  59.731  50.762  0.00  0.00    +0.000 C 
ATOM     31  C   UNL     1      59.916  59.319  51.194  0.00  0.00    +0.000 C 
ATOM     32  C   UNL     1      59.653  58.555  51.025  0.00  0.00    +0.000 C 
ATOM     33  C   UNL     1      60.561  59.108  51.670  0.00  0.00    +0.000 C 
ATOM     34  O   UNL     1      60.465  58.290  51.624  0.00  0.00    +0.000 OA
ATOM     35  C   UNL     1      61.231  59.111  52.158  0.00  0.00    +0.000 C 
ATOM     36  C   UNL     1      61.308  58.293  52.238  0.00  0.00    +0.000 C 
ATOM     37  C   UNL     1      61.880  59.329  52.624  0.00  0.00    +0.000 C 
ATOM     38  O   UNL     1      62.127  58.569  52.826  0.00  0.00    +0.000 OA
ATOM     39  C   UNL     1      62.464  59.746  53.037  0.00  0.00    +0.000 C 
ATOM     40  C   UNL     1      62.863  59.093  53.347  0.00  0.00    +0.000 C 
ATOM     41  C   UNL     1      62.943  60.333  53.369  0.00  0.00    +0.000 C 
ATOM     42  O   UNL     1      63.467  59.833  53.765  0.00  0.00    +0.000 OA
ATOM     43  C   UNL     1      63.370  59.015  53.719  0.00  0.00    +0.000 C 
ATOM     44  C   UNL     1      63.894  58.516  54.115  0.00  0.00    +0.000 C 
ATOM     45  O   UNL     1      62.751  58.697  53.277  0.00  0.00    +0.000 OA
ATOM     46  C   UNL     1      63.285  61.049  53.597  0.00  0.00    +0.000 C 
ATOM     47  C   UNL     1      63.897  60.734  54.052  0.00  0.00    +0.000 C 
ATOM     48  C   UNL     1      59.674  64.883  50.853  0.00  0.00    +0.000 C 
ATOM     49  N   UNL     1      59.386  65.621  50.622  0.00  0.00    +0.000 NA
ATOM     50  C   UNL     1      59.870  66.200  50.957  0.00  0.00    +0.000 C 
ATOM     51  C   UNL     1      60.399  66.713  51.327  0.00  0.00    +0.000 C 
ATOM     52  C   UNL     1      60.312  67.528  51.240  0.00  0.00    +0.000 C 
ATOM     53  N   UNL     1      59.695  67.831  50.782  0.00  0.00    +0.000 NA
ATOM     54  C   UNL     1      59.608  68.646  50.694  0.00  0.00    +0.000 C 
ATOM     55  C   UNL     1      58.992  68.948  50.237  0.00  0.00    +0.000 C 
ATOM     56  C   UNL     1      58.904  69.764  50.149  0.00  0.00    +0.000 C 
ATOM     57  C   UNL     1      58.463  68.434  49.867  0.00  0.00    +0.000 C 
ATOM     58  C   UNL     1      59.167  67.317  50.412  0.00  0.00    +0.000 C 
ATOM     59  C   UNL     1      59.254  66.501  50.500  0.00  0.00    +0.000 C 
ATOM     60  N   UNL     1      60.456  65.818  51.395  0.00  0.00    +0.000 NA
ATOM     61  C   UNL     1      60.335  65.005  51.331  0.00  0.00    +0.000 C 
ENDROOT
TORSDOF 0
ENDMDL
MODEL 8
REMARK VINA RESULT:   -15.024      3.519      7.775
REMARK INTER + INTRA:         -15.024
REMARK INTER:                 -15.024
REMARK INTRA:                   0.000
REMARK UNBOUND:                 0.000
ROOT
REMARK  Name = rifabutin
REMARK                            x       y       z     vdW  Elec       q    Type
REMARK                         _______ _______ _______ _____ _____    ______ ____
ATOM      1  C   UNL     1      62.779  67.547  56.053  0.00  0.00    +0.000 C 
ATOM      2  O   UNL     1      62.649  67.060  55.400  0.00  0.00    +0.000 OA
ATOM      3  C   UNL     1      62.181  67.325  54.773  0.00  0.00    +0.000 C 
ATOM      4  C   UNL     1      62.004  68.072  55.086  0.00  0.00    +0.000 C 
ATOM      5  C   UNL     1      61.720  68.848  55.231  0.00  0.00    +0.000 C 
ATOM      6  O   UNL     1      61.380  69.631  55.280  0.00  0.00    +0.000 OA
ATOM      7  C   UNL     1      60.882  70.180  54.838  0.00  0.00    +0.000 C 
ATOM      8  C   UNL     1      60.523  70.923  54.819  0.00  0.00    +0.000 C 
ATOM      9  O   UNL     1      61.003  69.464  54.448  0.00  0.00    +0.000 OA
ATOM     10  C   UNL     1      60.624  69.424  53.723  0.00  0.00    +0.000 A 
ATOM     11  C   UNL     1      60.230  70.159  53.631  0.00  0.00    +0.000 A 
ATOM     12  C   UNL     1      60.386  70.630  54.319  0.00  0.00    +0.000 C 
ATOM     13  O   UNL     1      60.106  71.393  54.458  0.00  0.00    +0.000 OA
ATOM     14  C   UNL     1      59.777  70.266  52.895  0.00  0.00    +0.000 A 
ATOM     15  C   UNL     1      59.768  69.629  52.336  0.00  0.00    +0.000 A 
ATOM     16  C   UNL     1      60.180  68.914  52.476  0.00  0.00    +0.000 A 
ATOM     17  O   UNL     1      60.150  68.315  51.910  0.00  0.00    +0.000 OA
ATOM     18  C   UNL     1      60.614  68.795  53.167  0.00  0.00    +0.000 A 
ATOM     19  C   UNL     1      61.020  68.090  53.306  0.00  0.00    +0.000 C 
ATOM     20  C   UNL     1      59.341  69.715  51.629  0.00  0.00    +0.000 C 
ATOM     21  O   UNL     1      59.344  69.085  51.096  0.00  0.00    +0.000 OA
ATOM     22  C   UNL     1      58.914  70.388  51.426  0.00  0.00    +0.000 C 
ATOM     23  N   UNL     1      58.699  69.988  50.691  0.00  0.00    +0.000 NA
ATOM     24  C   UNL     1      58.631  69.409  50.073  0.00  0.00    +0.000 C 
ATOM     25  O   UNL     1      58.150  69.800  49.529  0.00  0.00    +0.000 OA
ATOM     26  C   UNL     1      58.769  68.645  49.672  0.00  0.00    +0.000 C 
ATOM     27  C   UNL     1      58.333  68.770  48.983  0.00  0.00    +0.000 C 
ATOM     28  C   UNL     1      59.059  67.841  49.514  0.00  0.00    +0.000 C 
ATOM     29  C   UNL     1      59.464  67.056  49.583  0.00  0.00    +0.000 C 
ATOM     30  C   UNL     1      59.912  66.412  49.850  0.00  0.00    +0.000 C 
ATOM     31  C   UNL     1      60.393  65.897  50.290  0.00  0.00    +0.000 C 
ATOM     32  C   UNL     1      60.395  65.268  49.755  0.00  0.00    +0.000 C 
ATOM     33  C   UNL     1      60.873  65.549  50.868  0.00  0.00    +0.000 C 
ATOM     34  O   UNL     1      61.000  64.829  50.484  0.00  0.00    +0.000 OA
ATOM     35  C   UNL     1      61.320  65.389  51.547  0.00  0.00    +0.000 C 
ATOM     36  C   UNL     1      61.562  64.628  51.339  0.00  0.00    +0.000 C 
ATOM     37  C   UNL     1      61.703  65.429  52.280  0.00  0.00    +0.000 C 
ATOM     38  O   UNL     1      62.045  64.678  52.264  0.00  0.00    +0.000 OA
ATOM     39  C   UNL     1      61.997  65.665  53.018  0.00  0.00    +0.000 C 
ATOM     40  C   UNL     1      62.415  64.975  53.193  0.00  0.00    +0.000 C 
ATOM     41  C   UNL     1      62.180  66.081  53.709  0.00  0.00    +0.000 C 
ATOM     42  O   UNL     1      62.647  65.500  54.064  0.00  0.00    +0.000 OA
ATOM     43  C   UNL     1      62.773  64.781  53.679  0.00  0.00    +0.000 C 
ATOM     44  C   UNL     1      63.239  64.201  54.034  0.00  0.00    +0.000 C 
ATOM     45  O   UNL     1      62.433  64.643  52.941  0.00  0.00    +0.000 OA
ATOM     46  C   UNL     1      62.243  66.648  54.306  0.00  0.00    +0.000 C 
ATOM     47  C   UNL     1      62.725  66.213  54.815  0.00  0.00    +0.000 C 
ATOM     48  C   UNL     1      58.937  71.006  51.994  0.00  0.00    +0.000 C 
ATOM     49  N   UNL     1      58.573  71.746  51.962  0.00  0.00    +0.000 NA
ATOM     50  C   UNL     1      58.761  72.154  52.654  0.00  0.00    +0.000 C 
ATOM     51  C   UNL     1      58.996  72.491  53.370  0.00  0.00    +0.000 C 
ATOM     52  C   UNL     1      58.748  73.252  53.567  0.00  0.00    +0.000 C 
ATOM     53  N   UNL     1      58.265  73.677  53.049  0.00  0.00    +0.000 NA
ATOM     54  C   UNL     1      58.017  74.438  53.247  0.00  0.00    +0.000 C 
ATOM     55  C   UNL     1      57.535  74.862  52.729  0.00  0.00    +0.000 C 
ATOM     56  C   UNL     1      57.287  75.624  52.926  0.00  0.00    +0.000 C 
ATOM     57  C   UNL     1      57.301  74.524  52.013  0.00  0.00    +0.000 C 
ATOM     58  C   UNL     1      58.031  73.339  52.334  0.00  0.00    +0.000 C 
ATOM     59  C   UNL     1      58.279  72.578  52.136  0.00  0.00    +0.000 C 
ATOM     60  N   UNL     1      59.242  71.665  53.114  0.00  0.00    +0.000 NA
ATOM     61  C   UNL     1      59.350  70.956  52.707  0.00  0.00    +0.000 C 
ENDROOT
TORSDOF 0
ENDMDL
MODEL 9
REMARK VINA RESULT:   -14.747      2.450      6.731
REMARK INTER + INTRA:         -14.747
REMARK INTER:                 -14.747
REMARK INTRA:                   0.000
REMARK UNBOUND:                 0.000
ROOT
REMARK  Name = rifabutin
REMARK                            x       y       z     vdW  Elec       q    Type
REMARK                         _______ _______ _______ _____ _____    ______ ____
ATOM      1  C   UNL     1      63.643  63.944  54.668  0.00  0.00    +0.000 C 
ATOM      2  O   UNL     1      63.454  63.730  53.895  0.00  0.00    +0.000 OA
ATOM      3  C   UNL     1      63.006  64.237  53.423  0.00  0.00    +0.000 C 
ATOM      4  C   UNL     1      62.911  64.841  53.983  0.00  0.00    +0.000 C 
ATOM      5  C   UNL     1      62.710  65.540  54.401  0.00  0.00    +0.000 C 
ATOM      6  O   UNL     1      62.453  66.285  54.734  0.00  0.00    +0.000 OA
ATOM      7  C   UNL     1      62.006  66.995  54.535  0.00  0.00    +0.000 C 
ATOM      8  C   UNL     1      61.725  67.727  54.791  0.00  0.00    +0.000 C 
ATOM      9  O   UNL     1      62.047  66.452  53.916  0.00  0.00    +0.000 OA
ATOM     10  C   UNL     1      61.655  66.702  53.242  0.00  0.00    +0.000 A 
ATOM     11  C   UNL     1      61.337  67.456  53.429  0.00  0.00    +0.000 A 
ATOM     12  C   UNL     1      61.551  67.640  54.228  0.00  0.00    +0.000 C 
ATOM     13  O   UNL     1      61.352  68.329  54.636  0.00  0.00    +0.000 OA
ATOM     14  C   UNL     1      60.886  67.853  52.799  0.00  0.00    +0.000 A 
ATOM     15  C   UNL     1      60.804  67.454  52.055  0.00  0.00    +0.000 A 
ATOM     16  C   UNL     1      61.142  66.701  51.919  0.00  0.00    +0.000 A 
ATOM     17  O   UNL     1      61.042  66.342  51.183  0.00  0.00    +0.000 OA
ATOM     18  C   UNL     1      61.572  66.310  52.503  0.00  0.00    +0.000 A 
ATOM     19  C   UNL     1      61.906  65.567  52.370  0.00  0.00    +0.000 C 
ATOM     20  C   UNL     1      60.376  67.819  51.444  0.00  0.00    +0.000 C 
ATOM     21  O   UNL     1      60.306  67.417  50.727  0.00  0.00    +0.000 OA
ATOM     22  C   UNL     1      60.018  68.557  51.507  0.00  0.00    +0.000 C 
ATOM     23  N   UNL     1      59.751  68.459  50.691  0.00  0.00    +0.000 NA
ATOM     24  C   UNL     1      59.615  68.141  49.916  0.00  0.00    +0.000 C 
ATOM     25  O   UNL     1      59.168  68.739  49.565  0.00  0.00    +0.000 OA
ATOM     26  C   UNL     1      59.668  67.555  49.269  0.00  0.00    +0.000 C 
ATOM     27  C   UNL     1      59.237  67.951  48.689  0.00  0.00    +0.000 C 
ATOM     28  C   UNL     1      59.872  66.834  48.828  0.00  0.00    +0.000 C 
ATOM     29  C   UNL     1      60.195  66.042  48.602  0.00  0.00    +0.000 C 
ATOM     30  C   UNL     1      60.579  65.306  48.608  0.00  0.00    +0.000 C 
ATOM     31  C   UNL     1      61.012  64.629  48.817  0.00  0.00    +0.000 C 
ATOM     32  C   UNL     1      60.942  64.229  48.099  0.00  0.00    +0.000 C 
ATOM     33  C   UNL     1      61.463  64.060  49.215  0.00  0.00    +0.000 C 
ATOM     34  O   UNL     1      61.510  63.511  48.601  0.00  0.00    +0.000 OA
ATOM     35  C   UNL     1      61.902  63.633  49.774  0.00  0.00    +0.000 C 
ATOM     36  C   UNL     1      62.062  62.974  49.304  0.00  0.00    +0.000 C 
ATOM     37  C   UNL     1      62.298  63.380  50.456  0.00  0.00    +0.000 C 
ATOM     38  O   UNL     1      62.562  62.655  50.164  0.00  0.00    +0.000 OA
ATOM     39  C   UNL     1      62.626  63.317  51.214  0.00  0.00    +0.000 C 
ATOM     40  C   UNL     1      62.975  62.575  51.119  0.00  0.00    +0.000 C 
ATOM     41  C   UNL     1      62.862  63.448  51.996  0.00  0.00    +0.000 C 
ATOM     42  O   UNL     1      63.272  62.740  52.105  0.00  0.00    +0.000 OA
ATOM     43  C   UNL     1      63.318  62.191  51.489  0.00  0.00    +0.000 C 
ATOM     44  C   UNL     1      63.728  61.484  51.598  0.00  0.00    +0.000 C 
ATOM     45  O   UNL     1      62.954  62.351  50.767  0.00  0.00    +0.000 OA
ATOM     46  C   UNL     1      62.991  63.763  52.748  0.00  0.00    +0.000 C 
ATOM     47  C   UNL     1      63.434  63.136  53.051  0.00  0.00    +0.000 C 
ATOM     48  C   UNL     1      60.112  68.933  52.252  0.00  0.00    +0.000 C 
ATOM     49  N   UNL     1      59.825  69.667  52.496  0.00  0.00    +0.000 NA
ATOM     50  C   UNL     1      60.065  69.790  53.276  0.00  0.00    +0.000 C 
ATOM     51  C   UNL     1      60.343  69.834  54.052  0.00  0.00    +0.000 C 
ATOM     52  C   UNL     1      60.177  70.497  54.512  0.00  0.00    +0.000 C 
ATOM     53  N   UNL     1      59.733  71.118  54.197  0.00  0.00    +0.000 NA
ATOM     54  C   UNL     1      59.567  71.781  54.658  0.00  0.00    +0.000 C 
ATOM     55  C   UNL     1      59.123  72.401  54.343  0.00  0.00    +0.000 C 
ATOM     56  C   UNL     1      58.957  73.065  54.803  0.00  0.00    +0.000 C 
ATOM     57  C   UNL     1      58.845  72.356  53.567  0.00  0.00    +0.000 C 
ATOM     58  C   UNL     1      59.455  71.072  53.422  0.00  0.00    +0.000 C 
ATOM     59  C   UNL     1      59.621  70.409  52.961  0.00  0.00    +0.000 C 
ATOM     60  N   UNL     1      60.500  69.130  53.514  0.00  0.00    +0.000 NA
ATOM     61  C   UNL     1      60.529  68.601  52.882  0.00  0.00    +0.000 C 
ENDROOT
TORSDOF 0
ENDMDL
