MODEL 1
REMARK VINA RESULT:    -9.005      0.000      0.000
REMARK INTER + INTRA:          -9.005
REMARK INTER:                  -9.005
REMARK INTRA:                   0.000
REMARK UNBOUND:                 0.000
ROOT
REMARK  Name = rimazolium
REMARK                            x       y       z     vdW  Elec       q    Type
REMARK                         _______ _______ _______ _____ _____    ______ ____
ATOM      1  C   UNL     1      62.397  64.174  68.901  0.00  0.00    +0.000 C 
ATOM      2  C   UNL     1      61.640  63.903  68.721  0.00  0.00    +0.000 C 
ATOM      3  O   UNL     1      61.509  63.473  68.029  0.00  0.00    +0.000 OA
ATOM      4  C   UNL     1      60.751  63.202  67.848  0.00  0.00    +0.000 C 
ATOM      5  O   UNL     1      60.124  63.361  68.360  0.00  0.00    +0.000 OA
ATOM      6  C   UNL     1      60.621  62.771  67.156  0.00  0.00    +0.000 A 
ATOM      7  C   UNL     1      59.862  62.500  66.975  0.00  0.00    +0.000 A 
ATOM      8  N   UNL     1      59.732  62.070  66.284  0.00  0.00    +0.000 N 
ATOM      9  C   UNL     1      58.974  61.799  66.104  0.00  0.00    +0.000 C 
ATOM     10  C   UNL     1      60.359  61.911  65.773  0.00  0.00    +0.000 A 
ATOM     11  C   UNL     1      60.229  61.481  65.081  0.00  0.00    +0.000 C 
ATOM     12  C   UNL     1      60.856  61.321  64.570  0.00  0.00    +0.000 C 
ATOM     13  C   UNL     1      61.615  61.592  64.751  0.00  0.00    +0.000 C 
ATOM     14  C   UNL     1      61.745  62.022  65.442  0.00  0.00    +0.000 C 
ATOM     15  C   UNL     1      62.503  62.293  65.623  0.00  0.00    +0.000 C 
ATOM     16  N   UNL     1      61.118  62.182  65.954  0.00  0.00    +0.000 N 
ATOM     17  C   UNL     1      61.248  62.612  66.645  0.00  0.00    +0.000 A 
ATOM     18  O   UNL     1      62.006  62.883  66.826  0.00  0.00    +0.000 OA
ENDROOT
TORSDOF 0
ENDMDL
MODEL 2
REMARK VINA RESULT:    -8.624      2.167      4.343
REMARK INTER + INTRA:          -8.624
REMARK INTER:                  -8.624
REMARK INTRA:                   0.000
REMARK UNBOUND:                 0.000
ROOT
REMARK  Name = rimazolium
REMARK                            x       y       z     vdW  Elec       q    Type
REMARK                         _______ _______ _______ _____ _____    ______ ____
ATOM      1  C   UNL     1      59.383  62.004  66.677  0.00  0.00    +0.000 C 
ATOM      2  C   UNL     1      59.978  62.536  66.881  0.00  0.00    +0.000 C 
ATOM      3  O   UNL     1      60.260  62.564  67.656  0.00  0.00    +0.000 OA
ATOM      4  C   UNL     1      60.856  63.096  67.860  0.00  0.00    +0.000 C 
ATOM      5  O   UNL     1      61.171  63.601  67.288  0.00  0.00    +0.000 OA
ATOM      6  C   UNL     1      61.137  63.123  68.635  0.00  0.00    +0.000 A 
ATOM      7  C   UNL     1      61.734  63.657  68.840  0.00  0.00    +0.000 A 
ATOM      8  N   UNL     1      62.015  63.684  69.614  0.00  0.00    +0.000 N 
ATOM      9  C   UNL     1      62.611  64.217  69.818  0.00  0.00    +0.000 C 
ATOM     10  C   UNL     1      61.700  63.179  70.185  0.00  0.00    +0.000 A 
ATOM     11  C   UNL     1      61.981  63.206  70.960  0.00  0.00    +0.000 C 
ATOM     12  C   UNL     1      61.667  62.702  71.531  0.00  0.00    +0.000 C 
ATOM     13  C   UNL     1      61.070  62.168  71.327  0.00  0.00    +0.000 C 
ATOM     14  C   UNL     1      60.789  62.141  70.553  0.00  0.00    +0.000 C 
ATOM     15  C   UNL     1      60.193  61.608  70.349  0.00  0.00    +0.000 C 
ATOM     16  N   UNL     1      61.104  62.646  69.981  0.00  0.00    +0.000 N 
ATOM     17  C   UNL     1      60.823  62.619  69.206  0.00  0.00    +0.000 A 
ATOM     18  O   UNL     1      60.227  62.086  69.003  0.00  0.00    +0.000 OA
ENDROOT
TORSDOF 0
ENDMDL
MODEL 3
REMARK VINA RESULT:    -8.278      2.882      4.189
REMARK INTER + INTRA:          -8.278
REMARK INTER:                  -8.278
REMARK INTRA:                   0.000
REMARK UNBOUND:                 0.000
ROOT
REMARK  Name = rimazolium
REMARK                            x       y       z     vdW  Elec       q    Type
REMARK                         _______ _______ _______ _____ _____    ______ ____
ATOM      1  C   UNL     1      59.518  66.913  69.042  0.00  0.00    +0.000 C 
ATOM      2  C   UNL     1      59.642  66.495  69.742  0.00  0.00    +0.000 C 
ATOM      3  O   UNL     1      59.813  65.688  69.717  0.00  0.00    +0.000 OA
ATOM      4  C   UNL     1      59.937  65.270  70.417  0.00  0.00    +0.000 C 
ATOM      5  O   UNL     1      59.889  65.659  71.143  0.00  0.00    +0.000 OA
ATOM      6  C   UNL     1      60.108  64.463  70.391  0.00  0.00    +0.000 A 
ATOM      7  C   UNL     1      60.232  64.045  71.092  0.00  0.00    +0.000 A 
ATOM      8  N   UNL     1      60.403  63.239  71.066  0.00  0.00    +0.000 N 
ATOM      9  C   UNL     1      60.527  62.821  71.767  0.00  0.00    +0.000 C 
ATOM     10  C   UNL     1      60.451  62.850  70.341  0.00  0.00    +0.000 A 
ATOM     11  C   UNL     1      60.622  62.044  70.315  0.00  0.00    +0.000 C 
ATOM     12  C   UNL     1      60.670  61.655  69.589  0.00  0.00    +0.000 C 
ATOM     13  C   UNL     1      60.546  62.073  68.888  0.00  0.00    +0.000 C 
ATOM     14  C   UNL     1      60.375  62.879  68.914  0.00  0.00    +0.000 C 
ATOM     15  C   UNL     1      60.251  63.297  68.213  0.00  0.00    +0.000 C 
ATOM     16  N   UNL     1      60.327  63.269  69.640  0.00  0.00    +0.000 N 
ATOM     17  C   UNL     1      60.156  64.075  69.665  0.00  0.00    +0.000 A 
ATOM     18  O   UNL     1      60.032  64.493  68.965  0.00  0.00    +0.000 OA
ENDROOT
TORSDOF 0
ENDMDL
MODEL 4
REMARK VINA RESULT:    -8.239      4.027      5.298
REMARK INTER + INTRA:          -8.239
REMARK INTER:                  -8.239
REMARK INTRA:                   0.000
REMARK UNBOUND:                 0.000
ROOT
REMARK  Name = rimazolium
REMARK                            x       y       z     vdW  Elec       q    Type
REMARK                         _______ _______ _______ _____ _____    ______ ____
ATOM      1  C   UNL     1      59.730  66.714  69.671  0.00  0.00    +0.000 C 
ATOM      2  C   UNL     1      59.752  65.918  69.460  0.00  0.00    +0.000 C 
ATOM      3  O   UNL     1      60.063  65.360  69.984  0.00  0.00    +0.000 OA
ATOM      4  C   UNL     1      60.085  64.563  69.773  0.00  0.00    +0.000 C 
ATOM      5  O   UNL     1      59.795  64.323  69.038  0.00  0.00    +0.000 OA
ATOM      6  C   UNL     1      60.397  64.006  70.296  0.00  0.00    +0.000 A 
ATOM      7  C   UNL     1      60.418  63.208  70.085  0.00  0.00    +0.000 A 
ATOM      8  N   UNL     1      60.730  62.652  70.608  0.00  0.00    +0.000 N 
ATOM      9  C   UNL     1      60.751  61.855  70.397  0.00  0.00    +0.000 C 
ATOM     10  C   UNL     1      61.019  62.892  71.341  0.00  0.00    +0.000 A 
ATOM     11  C   UNL     1      61.331  62.336  71.865  0.00  0.00    +0.000 C 
ATOM     12  C   UNL     1      61.621  62.576  72.598  0.00  0.00    +0.000 C 
ATOM     13  C   UNL     1      61.599  63.374  72.810  0.00  0.00    +0.000 C 
ATOM     14  C   UNL     1      61.288  63.930  72.287  0.00  0.00    +0.000 C 
ATOM     15  C   UNL     1      61.266  64.727  72.498  0.00  0.00    +0.000 C 
ATOM     16  N   UNL     1      60.998  63.690  71.553  0.00  0.00    +0.000 N 
ATOM     17  C   UNL     1      60.686  64.246  71.030  0.00  0.00    +0.000 A 
ATOM     18  O   UNL     1      60.665  65.044  71.241  0.00  0.00    +0.000 OA
ENDROOT
TORSDOF 0
ENDMDL
MODEL 5
REMARK VINA RESULT:    -8.226      3.354      4.766
REMARK INTER + INTRA:          -8.226
REMARK INTER:                  -8.226
REMARK INTRA:                   0.000
REMARK UNBOUND:                 0.000
ROOT
REMARK  Name = rimazolium
REMARK                            x       y       z     vdW  Elec       q    Type
REMARK                         _______ _______ _______ _____ _____    ______ ____
ATOM      1  C   UNL     1      63.215  66.149  69.472  0.00  0.00    +0.000 C 
ATOM      2  C   UNL     1      63.106  65.799  70.210  0.00  0.00    +0.000 C 
ATOM      3  O   UNL     1      62.655  65.110  70.278  0.00  0.00    +0.000 OA
ATOM      4  C   UNL     1      62.546  64.759  71.016  0.00  0.00    +0.000 C 
ATOM      5  O   UNL     1      62.888  65.097  71.687  0.00  0.00    +0.000 OA
ATOM      6  C   UNL     1      62.096  64.071  71.083  0.00  0.00    +0.000 A 
ATOM      7  C   UNL     1      61.987  63.720  71.823  0.00  0.00    +0.000 A 
ATOM      8  N   UNL     1      61.537  63.033  71.890  0.00  0.00    +0.000 N 
ATOM      9  C   UNL     1      61.428  62.682  72.629  0.00  0.00    +0.000 C 
ATOM     10  C   UNL     1      61.195  62.696  71.220  0.00  0.00    +0.000 A 
ATOM     11  C   UNL     1      60.745  62.008  71.287  0.00  0.00    +0.000 C 
ATOM     12  C   UNL     1      60.403  61.671  70.616  0.00  0.00    +0.000 C 
ATOM     13  C   UNL     1      60.513  62.022  69.876  0.00  0.00    +0.000 C 
ATOM     14  C   UNL     1      60.963  62.709  69.809  0.00  0.00    +0.000 C 
ATOM     15  C   UNL     1      61.072  63.060  69.070  0.00  0.00    +0.000 C 
ATOM     16  N   UNL     1      61.304  63.047  70.480  0.00  0.00    +0.000 N 
ATOM     17  C   UNL     1      61.755  63.734  70.413  0.00  0.00    +0.000 A 
ATOM     18  O   UNL     1      61.864  64.085  69.674  0.00  0.00    +0.000 OA
ENDROOT
TORSDOF 0
ENDMDL
MODEL 6
REMARK VINA RESULT:    -8.222      3.378      5.058
REMARK INTER + INTRA:          -8.222
REMARK INTER:                  -8.222
REMARK INTRA:                   0.000
REMARK UNBOUND:                 0.000
ROOT
REMARK  Name = rimazolium
REMARK                            x       y       z     vdW  Elec       q    Type
REMARK                         _______ _______ _______ _____ _____    ______ ____
ATOM      1  C   UNL     1      64.824  65.673  70.997  0.00  0.00    +0.000 C 
ATOM      2  C   UNL     1      64.393  65.308  70.396  0.00  0.00    +0.000 C 
ATOM      3  O   UNL     1      63.707  64.887  70.577  0.00  0.00    +0.000 OA
ATOM      4  C   UNL     1      63.275  64.522  69.976  0.00  0.00    +0.000 C 
ATOM      5  O   UNL     1      63.530  64.579  69.193  0.00  0.00    +0.000 OA
ATOM      6  C   UNL     1      62.589  64.101  70.158  0.00  0.00    +0.000 A 
ATOM      7  C   UNL     1      62.158  63.736  69.556  0.00  0.00    +0.000 A 
ATOM      8  N   UNL     1      61.472  63.315  69.737  0.00  0.00    +0.000 N 
ATOM      9  C   UNL     1      61.041  62.950  69.136  0.00  0.00    +0.000 C 
ATOM     10  C   UNL     1      61.218  63.258  70.519  0.00  0.00    +0.000 A 
ATOM     11  C   UNL     1      60.532  62.837  70.701  0.00  0.00    +0.000 C 
ATOM     12  C   UNL     1      60.278  62.780  71.483  0.00  0.00    +0.000 C 
ATOM     13  C   UNL     1      60.710  63.145  72.085  0.00  0.00    +0.000 C 
ATOM     14  C   UNL     1      61.395  63.566  71.904  0.00  0.00    +0.000 C 
ATOM     15  C   UNL     1      61.826  63.931  72.505  0.00  0.00    +0.000 C 
ATOM     16  N   UNL     1      61.650  63.623  71.121  0.00  0.00    +0.000 N 
ATOM     17  C   UNL     1      62.335  64.044  70.940  0.00  0.00    +0.000 A 
ATOM     18  O   UNL     1      62.766  64.409  71.541  0.00  0.00    +0.000 OA
ENDROOT
TORSDOF 0
ENDMDL
MODEL 7
REMARK VINA RESULT:    -8.156      5.008      6.517
REMARK INTER + INTRA:          -8.156
REMARK INTER:                  -8.156
REMARK INTRA:                   0.000
REMARK UNBOUND:                 0.000
ROOT
REMARK  Name = rimazolium
REMARK                            x       y       z     vdW  Elec       q    Type
REMARK                         _______ _______ _______ _____ _____    ______ ____
ATOM      1  C   UNL     1      65.735  67.299  70.223  0.00  0.00    +0.000 C 
ATOM      2  C   UNL     1      65.382  66.586  70.008  0.00  0.00    +0.000 C 
ATOM      3  O   UNL     1      64.749  66.289  70.446  0.00  0.00    +0.000 OA
ATOM      4  C   UNL     1      64.396  65.576  70.231  0.00  0.00    +0.000 C 
ATOM      5  O   UNL     1      64.676  65.159  69.576  0.00  0.00    +0.000 OA
ATOM      6  C   UNL     1      63.763  65.280  70.670  0.00  0.00    +0.000 A 
ATOM      7  C   UNL     1      63.409  64.565  70.453  0.00  0.00    +0.000 A 
ATOM      8  N   UNL     1      62.777  64.269  70.892  0.00  0.00    +0.000 N 
ATOM      9  C   UNL     1      62.424  63.556  70.676  0.00  0.00    +0.000 C 
ATOM     10  C   UNL     1      62.497  64.686  71.546  0.00  0.00    +0.000 A 
ATOM     11  C   UNL     1      61.864  64.390  71.985  0.00  0.00    +0.000 C 
ATOM     12  C   UNL     1      61.585  64.807  72.639  0.00  0.00    +0.000 C 
ATOM     13  C   UNL     1      61.938  65.522  72.855  0.00  0.00    +0.000 C 
ATOM     14  C   UNL     1      62.571  65.817  72.417  0.00  0.00    +0.000 C 
ATOM     15  C   UNL     1      62.924  66.531  72.633  0.00  0.00    +0.000 C 
ATOM     16  N   UNL     1      62.851  65.401  71.762  0.00  0.00    +0.000 N 
ATOM     17  C   UNL     1      63.483  65.697  71.324  0.00  0.00    +0.000 A 
ATOM     18  O   UNL     1      63.837  66.410  71.540  0.00  0.00    +0.000 OA
ENDROOT
TORSDOF 0
ENDMDL
MODEL 8
REMARK VINA RESULT:    -7.989      5.654      6.535
REMARK INTER + INTRA:          -7.989
REMARK INTER:                  -7.989
REMARK INTRA:                   0.000
REMARK UNBOUND:                 0.000
ROOT
REMARK  Name = rimazolium
REMARK                            x       y       z     vdW  Elec       q    Type
REMARK                         _______ _______ _______ _____ _____    ______ ____
ATOM      1  C   UNL     1      63.202  68.821  72.945  0.00  0.00    +0.000 C 
ATOM      2  C   UNL     1      62.802  68.101  72.928  0.00  0.00    +0.000 C 
ATOM      3  O   UNL     1      63.059  67.498  72.426  0.00  0.00    +0.000 OA
ATOM      4  C   UNL     1      62.659  66.777  72.409  0.00  0.00    +0.000 C 
ATOM      5  O   UNL     1      62.001  66.659  72.893  0.00  0.00    +0.000 OA
ATOM      6  C   UNL     1      62.916  66.174  71.907  0.00  0.00    +0.000 A 
ATOM      7  C   UNL     1      62.515  65.452  71.890  0.00  0.00    +0.000 A 
ATOM      8  N   UNL     1      62.772  64.850  71.389  0.00  0.00    +0.000 N 
ATOM      9  C   UNL     1      62.372  64.129  71.371  0.00  0.00    +0.000 C 
ATOM     10  C   UNL     1      63.429  64.968  70.905  0.00  0.00    +0.000 A 
ATOM     11  C   UNL     1      63.687  64.366  70.403  0.00  0.00    +0.000 C 
ATOM     12  C   UNL     1      64.344  64.484  69.919  0.00  0.00    +0.000 C 
ATOM     13  C   UNL     1      64.745  65.206  69.937  0.00  0.00    +0.000 C 
ATOM     14  C   UNL     1      64.488  65.808  70.438  0.00  0.00    +0.000 C 
ATOM     15  C   UNL     1      64.888  66.529  70.455  0.00  0.00    +0.000 C 
ATOM     16  N   UNL     1      63.830  65.690  70.922  0.00  0.00    +0.000 N 
ATOM     17  C   UNL     1      63.573  66.292  71.423  0.00  0.00    +0.000 A 
ATOM     18  O   UNL     1      63.974  67.013  71.440  0.00  0.00    +0.000 OA
ENDROOT
TORSDOF 0
ENDMDL
MODEL 9
REMARK VINA RESULT:    -7.988      5.105      6.291
REMARK INTER + INTRA:          -7.988
REMARK INTER:                  -7.988
REMARK INTRA:                   0.000
REMARK UNBOUND:                 0.000
ROOT
REMARK  Name = rimazolium
REMARK                            x       y       z     vdW  Elec       q    Type
REMARK                         _______ _______ _______ _____ _____    ______ ____
ATOM      1  C   UNL     1      61.230  62.138  71.376  0.00  0.00    +0.000 C 
ATOM      2  C   UNL     1      61.231  62.840  71.806  0.00  0.00    +0.000 C 
ATOM      3  O   UNL     1      61.779  63.433  71.629  0.00  0.00    +0.000 OA
ATOM      4  C   UNL     1      61.780  64.136  72.061  0.00  0.00    +0.000 C 
ATOM      5  O   UNL     1      61.233  64.247  72.669  0.00  0.00    +0.000 OA
ATOM      6  C   UNL     1      62.327  64.727  71.883  0.00  0.00    +0.000 A 
ATOM      7  C   UNL     1      62.328  65.431  72.315  0.00  0.00    +0.000 A 
ATOM      8  N   UNL     1      62.875  66.022  72.138  0.00  0.00    +0.000 N 
ATOM      9  C   UNL     1      62.876  66.726  72.569  0.00  0.00    +0.000 C 
ATOM     10  C   UNL     1      63.421  65.911  71.530  0.00  0.00    +0.000 A 
ATOM     11  C   UNL     1      63.968  66.502  71.352  0.00  0.00    +0.000 C 
ATOM     12  C   UNL     1      64.514  66.391  70.744  0.00  0.00    +0.000 C 
ATOM     13  C   UNL     1      64.513  65.687  70.313  0.00  0.00    +0.000 C 
ATOM     14  C   UNL     1      63.966  65.096  70.490  0.00  0.00    +0.000 C 
ATOM     15  C   UNL     1      63.965  64.392  70.058  0.00  0.00    +0.000 C 
ATOM     16  N   UNL     1      63.420  65.207  71.098  0.00  0.00    +0.000 N 
ATOM     17  C   UNL     1      62.873  64.616  71.275  0.00  0.00    +0.000 A 
ATOM     18  O   UNL     1      62.872  63.913  70.844  0.00  0.00    +0.000 OA
ENDROOT
TORSDOF 0
ENDMDL
