MODEL 1
REMARK VINA RESULT:   -12.740      0.000      0.000
REMARK INTER + INTRA:         -12.740
REMARK INTER:                 -12.740
REMARK INTRA:                   0.000
REMARK UNBOUND:                 0.000
ROOT
REMARK  Name = rioprostil
REMARK                            x       y       z     vdW  Elec       q    Type
REMARK                         _______ _______ _______ _____ _____    ______ ____
ATOM      1  C   UNL     1      65.583  66.893  71.508  0.00  0.00    +0.000 C 
ATOM      2  C   UNL     1      64.881  66.463  71.563  0.00  0.00    +0.000 C 
ATOM      3  C   UNL     1      64.603  66.041  70.910  0.00  0.00    +0.000 C 
ATOM      4  C   UNL     1      63.901  65.611  70.966  0.00  0.00    +0.000 C 
ATOM      5  C   UNL     1      63.624  65.189  70.313  0.00  0.00    +0.000 C 
ATOM      6  C   UNL     1      64.274  65.442  69.873  0.00  0.00    +0.000 C 
ATOM      7  O   UNL     1      62.974  64.937  70.753  0.00  0.00    +0.000 OA
ATOM      8  C   UNL     1      63.346  64.767  69.661  0.00  0.00    +0.000 C 
ATOM      9  C   UNL     1      62.645  64.338  69.716  0.00  0.00    +0.000 C 
ATOM     10  C   UNL     1      62.367  63.916  69.063  0.00  0.00    +0.000 C 
ATOM     11  C   UNL     1      61.665  63.486  69.118  0.00  0.00    +0.000 C 
ATOM     12  C   UNL     1      61.183  63.427  69.786  0.00  0.00    +0.000 C 
ATOM     13  O   UNL     1      61.320  63.787  70.515  0.00  0.00    +0.000 OA
ATOM     14  C   UNL     1      60.542  62.944  69.595  0.00  0.00    +0.000 C 
ATOM     15  C   UNL     1      60.627  62.705  68.810  0.00  0.00    +0.000 C 
ATOM     16  O   UNL     1      60.109  62.217  68.393  0.00  0.00    +0.000 OA
ATOM     17  C   UNL     1      61.321  63.040  68.516  0.00  0.00    +0.000 C 
ATOM     18  C   UNL     1      61.619  62.945  67.751  0.00  0.00    +0.000 C 
ATOM     19  C   UNL     1      61.212  62.480  67.205  0.00  0.00    +0.000 C 
ATOM     20  C   UNL     1      61.510  62.386  66.442  0.00  0.00    +0.000 C 
ATOM     21  C   UNL     1      61.103  61.920  65.895  0.00  0.00    +0.000 C 
ATOM     22  C   UNL     1      61.401  61.826  65.132  0.00  0.00    +0.000 C 
ATOM     23  C   UNL     1      60.994  61.360  64.585  0.00  0.00    +0.000 C 
ATOM     24  C   UNL     1      61.292  61.266  63.822  0.00  0.00    +0.000 C 
ATOM     25  O   UNL     1      60.885  60.800  63.275  0.00  0.00    +0.000 OA
ENDROOT
TORSDOF 0
ENDMDL
MODEL 2
REMARK VINA RESULT:   -12.702      0.898      6.148
REMARK INTER + INTRA:         -12.702
REMARK INTER:                 -12.702
REMARK INTRA:                   0.000
REMARK UNBOUND:                 0.000
ROOT
REMARK  Name = rioprostil
REMARK                            x       y       z     vdW  Elec       q    Type
REMARK                         _______ _______ _______ _____ _____    ______ ____
ATOM      1  C   UNL     1      61.231  60.893  63.339  0.00  0.00    +0.000 C 
ATOM      2  C   UNL     1      60.870  61.053  64.064  0.00  0.00    +0.000 C 
ATOM      3  C   UNL     1      61.268  61.500  64.633  0.00  0.00    +0.000 C 
ATOM      4  C   UNL     1      60.908  61.659  65.357  0.00  0.00    +0.000 C 
ATOM      5  C   UNL     1      61.306  62.106  65.926  0.00  0.00    +0.000 C 
ATOM      6  C   UNL     1      61.952  62.179  65.417  0.00  0.00    +0.000 C 
ATOM      7  O   UNL     1      60.661  62.033  66.434  0.00  0.00    +0.000 OA
ATOM      8  C   UNL     1      61.704  62.552  66.495  0.00  0.00    +0.000 C 
ATOM      9  C   UNL     1      61.345  62.712  67.219  0.00  0.00    +0.000 C 
ATOM     10  C   UNL     1      61.743  63.159  67.787  0.00  0.00    +0.000 C 
ATOM     11  C   UNL     1      61.382  63.318  68.512  0.00  0.00    +0.000 C 
ATOM     12  C   UNL     1      60.630  63.070  68.746  0.00  0.00    +0.000 C 
ATOM     13  O   UNL     1      60.108  62.619  68.296  0.00  0.00    +0.000 OA
ATOM     14  C   UNL     1      60.495  63.354  69.509  0.00  0.00    +0.000 C 
ATOM     15  C   UNL     1      61.162  63.777  69.747  0.00  0.00    +0.000 C 
ATOM     16  O   UNL     1      61.263  64.155  70.473  0.00  0.00    +0.000 OA
ATOM     17  C   UNL     1      61.710  63.755  69.131  0.00  0.00    +0.000 C 
ATOM     18  C   UNL     1      62.457  64.108  69.133  0.00  0.00    +0.000 C 
ATOM     19  C   UNL     1      62.711  64.529  69.795  0.00  0.00    +0.000 C 
ATOM     20  C   UNL     1      63.457  64.882  69.797  0.00  0.00    +0.000 C 
ATOM     21  C   UNL     1      63.712  65.304  70.459  0.00  0.00    +0.000 C 
ATOM     22  C   UNL     1      64.458  65.656  70.461  0.00  0.00    +0.000 C 
ATOM     23  C   UNL     1      64.713  66.078  71.123  0.00  0.00    +0.000 C 
ATOM     24  C   UNL     1      65.458  66.430  71.125  0.00  0.00    +0.000 C 
ATOM     25  O   UNL     1      65.713  66.852  71.787  0.00  0.00    +0.000 OA
ENDROOT
TORSDOF 0
ENDMDL
MODEL 3
REMARK VINA RESULT:   -12.160      1.769      1.945
REMARK INTER + INTRA:         -12.160
REMARK INTER:                 -12.160
REMARK INTRA:                   0.000
REMARK UNBOUND:                 0.000
ROOT
REMARK  Name = rioprostil
REMARK                            x       y       z     vdW  Elec       q    Type
REMARK                         _______ _______ _______ _____ _____    ______ ____
ATOM      1  C   UNL     1      61.753  67.701  72.951  0.00  0.00    +0.000 C 
ATOM      2  C   UNL     1      61.442  66.946  72.837  0.00  0.00    +0.000 C 
ATOM      3  C   UNL     1      61.532  66.568  72.109  0.00  0.00    +0.000 C 
ATOM      4  C   UNL     1      61.220  65.813  71.995  0.00  0.00    +0.000 C 
ATOM      5  C   UNL     1      61.310  65.435  71.266  0.00  0.00    +0.000 C 
ATOM      6  C   UNL     1      61.722  66.090  70.978  0.00  0.00    +0.000 C 
ATOM      7  O   UNL     1      60.899  64.781  71.555  0.00  0.00    +0.000 OA
ATOM      8  C   UNL     1      61.400  65.058  70.538  0.00  0.00    +0.000 C 
ATOM      9  C   UNL     1      61.090  64.304  70.424  0.00  0.00    +0.000 C 
ATOM     10  C   UNL     1      61.180  63.926  69.695  0.00  0.00    +0.000 C 
ATOM     11  C   UNL     1      60.868  63.171  69.581  0.00  0.00    +0.000 C 
ATOM     12  C   UNL     1      60.456  62.725  70.141  0.00  0.00    +0.000 C 
ATOM     13  O   UNL     1      60.283  62.959  70.913  0.00  0.00    +0.000 OA
ATOM     14  C   UNL     1      60.248  62.007  69.792  0.00  0.00    +0.000 C 
ATOM     15  C   UNL     1      60.531  62.008  69.018  0.00  0.00    +0.000 C 
ATOM     16  O   UNL     1      60.446  61.398  68.470  0.00  0.00    +0.000 OA
ATOM     17  C   UNL     1      60.915  62.727  68.887  0.00  0.00    +0.000 C 
ATOM     18  C   UNL     1      61.281  62.961  68.185  0.00  0.00    +0.000 C 
ATOM     19  C   UNL     1      61.283  62.455  67.533  0.00  0.00    +0.000 C 
ATOM     20  C   UNL     1      61.649  62.690  66.832  0.00  0.00    +0.000 C 
ATOM     21  C   UNL     1      61.651  62.184  66.179  0.00  0.00    +0.000 C 
ATOM     22  C   UNL     1      62.017  62.419  65.478  0.00  0.00    +0.000 C 
ATOM     23  C   UNL     1      62.019  61.913  64.826  0.00  0.00    +0.000 C 
ATOM     24  C   UNL     1      62.385  62.148  64.125  0.00  0.00    +0.000 C 
ATOM     25  O   UNL     1      62.387  61.642  63.472  0.00  0.00    +0.000 OA
ENDROOT
TORSDOF 0
ENDMDL
MODEL 4
REMARK VINA RESULT:   -11.987      1.481      2.139
REMARK INTER + INTRA:         -11.987
REMARK INTER:                 -11.987
REMARK INTRA:                   0.000
REMARK UNBOUND:                 0.000
ROOT
REMARK  Name = rioprostil
REMARK                            x       y       z     vdW  Elec       q    Type
REMARK                         _______ _______ _______ _____ _____    ______ ____
ATOM      1  C   UNL     1      66.944  68.015  70.093  0.00  0.00    +0.000 C 
ATOM      2  C   UNL     1      66.414  67.560  70.532  0.00  0.00    +0.000 C 
ATOM      3  C   UNL     1      65.838  67.112  70.146  0.00  0.00    +0.000 C 
ATOM      4  C   UNL     1      65.308  66.657  70.585  0.00  0.00    +0.000 C 
ATOM      5  C   UNL     1      64.731  66.209  70.200  0.00  0.00    +0.000 C 
ATOM      6  C   UNL     1      65.011  66.476  69.471  0.00  0.00    +0.000 C 
ATOM      7  O   UNL     1      64.452  65.942  70.928  0.00  0.00    +0.000 OA
ATOM      8  C   UNL     1      64.155  65.761  69.814  0.00  0.00    +0.000 C 
ATOM      9  C   UNL     1      63.626  65.307  70.253  0.00  0.00    +0.000 C 
ATOM     10  C   UNL     1      63.049  64.859  69.867  0.00  0.00    +0.000 C 
ATOM     11  C   UNL     1      62.519  64.404  70.306  0.00  0.00    +0.000 C 
ATOM     12  C   UNL     1      62.498  64.341  71.129  0.00  0.00    +0.000 C 
ATOM     13  O   UNL     1      63.003  64.724  71.656  0.00  0.00    +0.000 OA
ATOM     14  C   UNL     1      61.882  63.830  71.330  0.00  0.00    +0.000 C 
ATOM     15  C   UNL     1      61.524  63.576  70.631  0.00  0.00    +0.000 C 
ATOM     16  O   UNL     1      60.884  63.059  70.576  0.00  0.00    +0.000 OA
ATOM     17  C   UNL     1      61.917  63.930  69.999  0.00  0.00    +0.000 C 
ATOM     18  C   UNL     1      61.739  63.830  69.199  0.00  0.00    +0.000 C 
ATOM     19  C   UNL     1      61.117  63.336  68.975  0.00  0.00    +0.000 C 
ATOM     20  C   UNL     1      60.940  63.236  68.175  0.00  0.00    +0.000 C 
ATOM     21  C   UNL     1      60.318  62.742  67.950  0.00  0.00    +0.000 C 
ATOM     22  C   UNL     1      60.141  62.641  67.151  0.00  0.00    +0.000 C 
ATOM     23  C   UNL     1      59.519  62.148  66.925  0.00  0.00    +0.000 C 
ATOM     24  C   UNL     1      59.341  62.047  66.126  0.00  0.00    +0.000 C 
ATOM     25  O   UNL     1      58.719  61.553  65.901  0.00  0.00    +0.000 OA
ENDROOT
TORSDOF 0
ENDMDL
MODEL 5
REMARK VINA RESULT:   -10.571      3.537      4.819
REMARK INTER + INTRA:         -10.571
REMARK INTER:                 -10.571
REMARK INTRA:                   0.000
REMARK UNBOUND:                 0.000
ROOT
REMARK  Name = rioprostil
REMARK                            x       y       z     vdW  Elec       q    Type
REMARK                         _______ _______ _______ _____ _____    ______ ____
ATOM      1  C   UNL     1      68.062  68.397  69.139  0.00  0.00    +0.000 C 
ATOM      2  C   UNL     1      67.491  68.448  69.732  0.00  0.00    +0.000 C 
ATOM      3  C   UNL     1      66.911  67.864  69.797  0.00  0.00    +0.000 C 
ATOM      4  C   UNL     1      66.340  67.916  70.391  0.00  0.00    +0.000 C 
ATOM      5  C   UNL     1      65.760  67.332  70.456  0.00  0.00    +0.000 C 
ATOM      6  C   UNL     1      66.085  66.936  69.809  0.00  0.00    +0.000 C 
ATOM      7  O   UNL     1      65.436  67.727  71.103  0.00  0.00    +0.000 OA
ATOM      8  C   UNL     1      65.180  66.748  70.522  0.00  0.00    +0.000 C 
ATOM      9  C   UNL     1      64.610  66.799  71.114  0.00  0.00    +0.000 C 
ATOM     10  C   UNL     1      64.030  66.216  71.180  0.00  0.00    +0.000 C 
ATOM     11  C   UNL     1      63.459  66.267  71.773  0.00  0.00    +0.000 C 
ATOM     12  C   UNL     1      63.398  66.866  72.338  0.00  0.00    +0.000 C 
ATOM     13  O   UNL     1      63.898  67.518  72.408  0.00  0.00    +0.000 OA
ATOM     14  C   UNL     1      62.750  66.696  72.819  0.00  0.00    +0.000 C 
ATOM     15  C   UNL     1      62.410  65.993  72.552  0.00  0.00    +0.000 C 
ATOM     16  O   UNL     1      61.749  65.621  72.875  0.00  0.00    +0.000 OA
ATOM     17  C   UNL     1      62.849  65.728  71.906  0.00  0.00    +0.000 C 
ATOM     18  C   UNL     1      62.702  65.043  71.469  0.00  0.00    +0.000 C 
ATOM     19  C   UNL     1      62.067  64.555  71.668  0.00  0.00    +0.000 C 
ATOM     20  C   UNL     1      61.921  63.872  71.230  0.00  0.00    +0.000 C 
ATOM     21  C   UNL     1      61.286  63.383  71.429  0.00  0.00    +0.000 C 
ATOM     22  C   UNL     1      61.140  62.699  70.992  0.00  0.00    +0.000 C 
ATOM     23  C   UNL     1      60.505  62.210  71.191  0.00  0.00    +0.000 C 
ATOM     24  C   UNL     1      60.359  61.526  70.754  0.00  0.00    +0.000 C 
ATOM     25  O   UNL     1      59.724  61.038  70.953  0.00  0.00    +0.000 OA
ENDROOT
TORSDOF 0
ENDMDL
