MODEL 1
REMARK VINA RESULT:   -13.798      0.000      0.000
REMARK INTER + INTRA:         -13.798
REMARK INTER:                 -13.798
REMARK INTRA:                   0.000
REMARK UNBOUND:                 0.000
ROOT
REMARK  Name = risdiplam
REMARK                            x       y       z     vdW  Elec       q    Type
REMARK                         _______ _______ _______ _____ _____    ______ ____
ATOM      1  C   UNL     1      59.737  61.634  65.765  0.00  0.00    +0.000 C 
ATOM      2  C   UNL     1      60.427  62.013  66.013  0.00  0.00    +0.000 A 
ATOM      3  C   UNL     1      60.451  62.388  66.748  0.00  0.00    +0.000 A 
ATOM      4  C   UNL     1      61.141  62.766  66.996  0.00  0.00    +0.000 A 
ATOM      5  N   UNL     1      61.807  62.771  66.508  0.00  0.00    +0.000 NA
ATOM      6  N   UNL     1      61.783  62.397  65.773  0.00  0.00    +0.000 N 
ATOM      7  C   UNL     1      61.093  62.018  65.526  0.00  0.00    +0.000 A 
ATOM      8  N   UNL     1      61.232  61.699  64.778  0.00  0.00    +0.000 NA
ATOM      9  C   UNL     1      62.007  61.879  64.563  0.00  0.00    +0.000 A 
ATOM     10  C   UNL     1      62.348  62.311  65.178  0.00  0.00    +0.000 A 
ATOM     11  C   UNL     1      62.378  61.666  63.857  0.00  0.00    +0.000 C 
ATOM     12  C   UNL     1      61.165  63.140  67.730  0.00  0.00    +0.000 A 
ATOM     13  C   UNL     1      60.500  63.136  68.218  0.00  0.00    +0.000 A 
ATOM     14  C   UNL     1      60.524  63.509  68.953  0.00  0.00    +0.000 A 
ATOM     15  O   UNL     1      59.858  63.505  69.441  0.00  0.00    +0.000 OA
ATOM     16  N   UNL     1      61.214  63.888  69.200  0.00  0.00    +0.000 N 
ATOM     17  C   UNL     1      61.238  64.262  69.936  0.00  0.00    +0.000 A 
ATOM     18  C   UNL     1      61.928  64.641  70.183  0.00  0.00    +0.000 A 
ATOM     19  C   UNL     1      62.593  64.645  69.695  0.00  0.00    +0.000 A 
ATOM     20  C   UNL     1      62.569  64.272  68.961  0.00  0.00    +0.000 A 
ATOM     21  C   UNL     1      61.880  63.893  68.713  0.00  0.00    +0.000 A 
ATOM     22  N   UNL     1      61.855  63.519  67.978  0.00  0.00    +0.000 NA
ATOM     23  N   UNL     1      61.952  65.015  70.918  0.00  0.00    +0.000 N 
ATOM     24  C   UNL     1      61.287  65.010  71.406  0.00  0.00    +0.000 C 
ATOM     25  C   UNL     1      61.311  65.384  72.140  0.00  0.00    +0.000 C 
ATOM     26  N   UNL     1      62.001  65.763  72.388  0.00  0.00    +0.000 NA
ATOM     27  C   UNL     1      62.666  65.768  71.901  0.00  0.00    +0.000 C 
ATOM     28  C   UNL     1      62.642  65.393  71.165  0.00  0.00    +0.000 C 
ATOM     29  C   UNL     1      63.078  66.202  72.468  0.00  0.00    +0.000 C 
ATOM     30  C   UNL     1      63.449  65.989  71.762  0.00  0.00    +0.000 C 
ENDROOT
TORSDOF 0
ENDMDL
MODEL 2
REMARK VINA RESULT:   -13.791      2.105      3.192
REMARK INTER + INTRA:         -13.791
REMARK INTER:                 -13.791
REMARK INTRA:                   0.000
REMARK UNBOUND:                 0.000
ROOT
REMARK  Name = risdiplam
REMARK                            x       y       z     vdW  Elec       q    Type
REMARK                         _______ _______ _______ _____ _____    ______ ____
ATOM      1  C   UNL     1      60.159  61.912  69.735  0.00  0.00    +0.000 C 
ATOM      2  C   UNL     1      60.622  62.434  69.295  0.00  0.00    +0.000 A 
ATOM      3  C   UNL     1      61.193  62.897  69.672  0.00  0.00    +0.000 A 
ATOM      4  C   UNL     1      61.656  63.420  69.232  0.00  0.00    +0.000 A 
ATOM      5  N   UNL     1      61.549  63.479  68.416  0.00  0.00    +0.000 NA
ATOM      6  N   UNL     1      60.979  63.017  68.040  0.00  0.00    +0.000 N 
ATOM      7  C   UNL     1      60.516  62.495  68.480  0.00  0.00    +0.000 A 
ATOM      8  N   UNL     1      60.001  62.112  67.961  0.00  0.00    +0.000 NA
ATOM      9  C   UNL     1      60.145  62.398  67.201  0.00  0.00    +0.000 A 
ATOM     10  C   UNL     1      60.750  62.957  67.249  0.00  0.00    +0.000 A 
ATOM     11  C   UNL     1      59.754  62.165  66.512  0.00  0.00    +0.000 C 
ATOM     12  C   UNL     1      62.226  63.882  69.608  0.00  0.00    +0.000 A 
ATOM     13  C   UNL     1      62.333  63.823  70.424  0.00  0.00    +0.000 A 
ATOM     14  C   UNL     1      62.903  64.285  70.800  0.00  0.00    +0.000 A 
ATOM     15  O   UNL     1      63.011  64.226  71.616  0.00  0.00    +0.000 OA
ATOM     16  N   UNL     1      63.366  64.807  70.361  0.00  0.00    +0.000 N 
ATOM     17  C   UNL     1      63.937  65.270  70.737  0.00  0.00    +0.000 A 
ATOM     18  C   UNL     1      64.400  65.793  70.297  0.00  0.00    +0.000 A 
ATOM     19  C   UNL     1      64.292  65.852  69.481  0.00  0.00    +0.000 A 
ATOM     20  C   UNL     1      63.723  65.390  69.105  0.00  0.00    +0.000 A 
ATOM     21  C   UNL     1      63.260  64.868  69.545  0.00  0.00    +0.000 A 
ATOM     22  N   UNL     1      62.689  64.405  69.169  0.00  0.00    +0.000 NA
ATOM     23  N   UNL     1      64.970  66.255  70.673  0.00  0.00    +0.000 N 
ATOM     24  C   UNL     1      65.077  66.196  71.489  0.00  0.00    +0.000 C 
ATOM     25  C   UNL     1      65.647  66.658  71.866  0.00  0.00    +0.000 C 
ATOM     26  N   UNL     1      66.110  67.180  71.426  0.00  0.00    +0.000 NA
ATOM     27  C   UNL     1      66.003  67.241  70.610  0.00  0.00    +0.000 C 
ATOM     28  C   UNL     1      65.433  66.777  70.234  0.00  0.00    +0.000 C 
ATOM     29  C   UNL     1      66.599  67.809  70.573  0.00  0.00    +0.000 C 
ATOM     30  C   UNL     1      66.208  67.576  69.885  0.00  0.00    +0.000 C 
ENDROOT
TORSDOF 0
ENDMDL
MODEL 3
REMARK VINA RESULT:   -12.170      1.230      2.073
REMARK INTER + INTRA:         -12.170
REMARK INTER:                 -12.170
REMARK INTRA:                   0.000
REMARK UNBOUND:                 0.000
ROOT
REMARK  Name = risdiplam
REMARK                            x       y       z     vdW  Elec       q    Type
REMARK                         _______ _______ _______ _____ _____    ______ ____
ATOM      1  C   UNL     1      62.741  62.363  65.068  0.00  0.00    +0.000 C 
ATOM      2  C   UNL     1      62.068  62.296  65.540  0.00  0.00    +0.000 A 
ATOM      3  C   UNL     1      62.041  62.668  66.277  0.00  0.00    +0.000 A 
ATOM      4  C   UNL     1      61.368  62.601  66.749  0.00  0.00    +0.000 A 
ATOM      5  N   UNL     1      60.722  62.161  66.485  0.00  0.00    +0.000 NA
ATOM      6  N   UNL     1      60.748  61.790  65.749  0.00  0.00    +0.000 N 
ATOM      7  C   UNL     1      61.421  61.857  65.277  0.00  0.00    +0.000 A 
ATOM      8  N   UNL     1      61.288  61.432  64.582  0.00  0.00    +0.000 NA
ATOM      9  C   UNL     1      60.534  61.102  64.625  0.00  0.00    +0.000 A 
ATOM     10  C   UNL     1      60.199  61.323  65.346  0.00  0.00    +0.000 A 
ATOM     11  C   UNL     1      60.175  60.634  64.047  0.00  0.00    +0.000 C 
ATOM     12  C   UNL     1      61.342  62.973  67.484  0.00  0.00    +0.000 A 
ATOM     13  C   UNL     1      61.988  63.412  67.749  0.00  0.00    +0.000 A 
ATOM     14  C   UNL     1      61.962  63.784  68.484  0.00  0.00    +0.000 A 
ATOM     15  O   UNL     1      62.609  64.223  68.748  0.00  0.00    +0.000 OA
ATOM     16  N   UNL     1      61.289  63.717  68.956  0.00  0.00    +0.000 N 
ATOM     17  C   UNL     1      61.262  64.089  69.693  0.00  0.00    +0.000 A 
ATOM     18  C   UNL     1      60.589  64.022  70.165  0.00  0.00    +0.000 A 
ATOM     19  C   UNL     1      59.943  63.582  69.901  0.00  0.00    +0.000 A 
ATOM     20  C   UNL     1      59.969  63.211  69.165  0.00  0.00    +0.000 A 
ATOM     21  C   UNL     1      60.642  63.278  68.693  0.00  0.00    +0.000 A 
ATOM     22  N   UNL     1      60.669  62.906  67.956  0.00  0.00    +0.000 NA
ATOM     23  N   UNL     1      60.563  64.394  70.900  0.00  0.00    +0.000 N 
ATOM     24  C   UNL     1      61.210  64.833  71.164  0.00  0.00    +0.000 C 
ATOM     25  C   UNL     1      61.183  65.205  71.900  0.00  0.00    +0.000 C 
ATOM     26  N   UNL     1      60.510  65.138  72.372  0.00  0.00    +0.000 NA
ATOM     27  C   UNL     1      59.863  64.699  72.109  0.00  0.00    +0.000 C 
ATOM     28  C   UNL     1      59.890  64.326  71.372  0.00  0.00    +0.000 C 
ATOM     29  C   UNL     1      59.460  64.874  72.806  0.00  0.00    +0.000 C 
ATOM     30  C   UNL     1      59.102  64.406  72.229  0.00  0.00    +0.000 C 
ENDROOT
TORSDOF 0
ENDMDL
