MODEL 1
REMARK VINA RESULT:    -9.374      0.000      0.000
REMARK INTER + INTRA:          -9.374
REMARK INTER:                  -9.374
REMARK INTRA:                   0.000
REMARK UNBOUND:                 0.000
ROOT
REMARK  Name = rivastigmine
REMARK                            x       y       z     vdW  Elec       q    Type
REMARK                         _______ _______ _______ _____ _____    ______ ____
ATOM      1  C   UNL     1      60.771  64.371  69.811  0.00  0.00    +0.000 C 
ATOM      2  C   UNL     1      60.427  63.918  69.214  0.00  0.00    +0.000 C 
ATOM      3  N   UNL     1      60.873  63.697  68.555  0.00  0.00    +0.000 N 
ATOM      4  C   UNL     1      61.662  63.930  68.494  0.00  0.00    +0.000 C 
ATOM      5  C   UNL     1      60.529  63.244  67.957  0.00  0.00    +0.000 C 
ATOM      6  O   UNL     1      59.740  63.011  68.018  0.00  0.00    +0.000 OA
ATOM      7  O   UNL     1      60.975  63.024  67.299  0.00  0.00    +0.000 OA
ATOM      8  C   UNL     1      60.631  62.571  66.702  0.00  0.00    +0.000 A 
ATOM      9  C   UNL     1      59.842  62.338  66.762  0.00  0.00    +0.000 A 
ATOM     10  C   UNL     1      59.498  61.884  66.164  0.00  0.00    +0.000 A 
ATOM     11  C   UNL     1      59.944  61.664  65.506  0.00  0.00    +0.000 A 
ATOM     12  C   UNL     1      60.733  61.897  65.446  0.00  0.00    +0.000 A 
ATOM     13  C   UNL     1      61.077  62.350  66.043  0.00  0.00    +0.000 A 
ATOM     14  C   UNL     1      61.179  61.676  64.787  0.00  0.00    +0.000 C 
ATOM     15  C   UNL     1      60.835  61.223  64.189  0.00  0.00    +0.000 C 
ATOM     16  N   UNL     1      61.968  61.909  64.726  0.00  0.00    +0.000 NA
ATOM     17  C   UNL     1      62.413  61.689  64.068  0.00  0.00    +0.000 C 
ATOM     18  C   UNL     1      62.311  62.363  65.324  0.00  0.00    +0.000 C 
ENDROOT
TORSDOF 0
ENDMDL
MODEL 2
REMARK VINA RESULT:    -8.824      2.004      5.047
REMARK INTER + INTRA:          -8.824
REMARK INTER:                  -8.824
REMARK INTRA:                   0.000
REMARK UNBOUND:                 0.000
ROOT
REMARK  Name = rivastigmine
REMARK                            x       y       z     vdW  Elec       q    Type
REMARK                         _______ _______ _______ _____ _____    ______ ____
ATOM      1  C   UNL     1      60.192  62.409  66.318  0.00  0.00    +0.000 C 
ATOM      2  C   UNL     1      60.182  62.161  67.105  0.00  0.00    +0.000 C 
ATOM      3  N   UNL     1      60.496  62.647  67.694  0.00  0.00    +0.000 N 
ATOM      4  C   UNL     1      60.819  63.380  67.496  0.00  0.00    +0.000 C 
ATOM      5  C   UNL     1      60.486  62.399  68.482  0.00  0.00    +0.000 C 
ATOM      6  O   UNL     1      60.163  61.668  68.680  0.00  0.00    +0.000 OA
ATOM      7  O   UNL     1      60.799  62.885  69.070  0.00  0.00    +0.000 OA
ATOM      8  C   UNL     1      60.789  62.637  69.857  0.00  0.00    +0.000 A 
ATOM      9  C   UNL     1      60.466  61.905  70.055  0.00  0.00    +0.000 A 
ATOM     10  C   UNL     1      60.456  61.658  70.843  0.00  0.00    +0.000 A 
ATOM     11  C   UNL     1      60.770  62.143  71.431  0.00  0.00    +0.000 A 
ATOM     12  C   UNL     1      61.093  62.875  71.233  0.00  0.00    +0.000 A 
ATOM     13  C   UNL     1      61.103  63.123  70.446  0.00  0.00    +0.000 A 
ATOM     14  C   UNL     1      61.406  63.361  71.822  0.00  0.00    +0.000 C 
ATOM     15  C   UNL     1      61.396  63.113  72.609  0.00  0.00    +0.000 C 
ATOM     16  N   UNL     1      61.730  64.094  71.624  0.00  0.00    +0.000 NA
ATOM     17  C   UNL     1      62.043  64.579  72.213  0.00  0.00    +0.000 C 
ATOM     18  C   UNL     1      61.739  64.341  70.837  0.00  0.00    +0.000 C 
ENDROOT
TORSDOF 0
ENDMDL
MODEL 3
REMARK VINA RESULT:    -8.464      1.325      4.248
REMARK INTER + INTRA:          -8.464
REMARK INTER:                  -8.464
REMARK INTRA:                   0.000
REMARK UNBOUND:                 0.000
ROOT
REMARK  Name = rivastigmine
REMARK                            x       y       z     vdW  Elec       q    Type
REMARK                         _______ _______ _______ _____ _____    ______ ____
ATOM      1  C   UNL     1      62.054  61.811  64.567  0.00  0.00    +0.000 C 
ATOM      2  C   UNL     1      61.851  62.343  65.163  0.00  0.00    +0.000 C 
ATOM      3  N   UNL     1      61.655  62.064  65.915  0.00  0.00    +0.000 N 
ATOM      4  C   UNL     1      61.663  61.254  66.070  0.00  0.00    +0.000 C 
ATOM      5  C   UNL     1      61.452  62.597  66.513  0.00  0.00    +0.000 C 
ATOM      6  O   UNL     1      61.445  63.406  66.359  0.00  0.00    +0.000 OA
ATOM      7  O   UNL     1      61.256  62.318  67.264  0.00  0.00    +0.000 OA
ATOM      8  C   UNL     1      61.053  62.850  67.860  0.00  0.00    +0.000 A 
ATOM      9  C   UNL     1      61.046  63.659  67.706  0.00  0.00    +0.000 A 
ATOM     10  C   UNL     1      60.843  64.191  68.304  0.00  0.00    +0.000 A 
ATOM     11  C   UNL     1      60.647  63.912  69.055  0.00  0.00    +0.000 A 
ATOM     12  C   UNL     1      60.654  63.103  69.209  0.00  0.00    +0.000 A 
ATOM     13  C   UNL     1      60.858  62.571  68.612  0.00  0.00    +0.000 A 
ATOM     14  C   UNL     1      60.459  62.824  69.961  0.00  0.00    +0.000 C 
ATOM     15  C   UNL     1      60.255  63.356  70.558  0.00  0.00    +0.000 C 
ATOM     16  N   UNL     1      60.466  62.013  70.115  0.00  0.00    +0.000 NA
ATOM     17  C   UNL     1      60.270  61.735  70.866  0.00  0.00    +0.000 C 
ATOM     18  C   UNL     1      60.669  61.482  69.518  0.00  0.00    +0.000 C 
ENDROOT
TORSDOF 0
ENDMDL
MODEL 4
REMARK VINA RESULT:    -8.396      5.203      6.475
REMARK INTER + INTRA:          -8.396
REMARK INTER:                  -8.396
REMARK INTRA:                   0.000
REMARK UNBOUND:                 0.000
ROOT
REMARK  Name = rivastigmine
REMARK                            x       y       z     vdW  Elec       q    Type
REMARK                         _______ _______ _______ _____ _____    ______ ____
ATOM      1  C   UNL     1      60.897  63.036  72.162  0.00  0.00    +0.000 C 
ATOM      2  C   UNL     1      61.467  63.262  71.610  0.00  0.00    +0.000 C 
ATOM      3  N   UNL     1      61.936  63.927  71.751  0.00  0.00    +0.000 N 
ATOM      4  C   UNL     1      61.834  64.365  72.443  0.00  0.00    +0.000 C 
ATOM      5  C   UNL     1      62.507  64.154  71.199  0.00  0.00    +0.000 C 
ATOM      6  O   UNL     1      62.608  63.716  70.508  0.00  0.00    +0.000 OA
ATOM      7  O   UNL     1      62.975  64.818  71.340  0.00  0.00    +0.000 OA
ATOM      8  C   UNL     1      63.545  65.044  70.788  0.00  0.00    +0.000 A 
ATOM      9  C   UNL     1      63.646  64.607  70.097  0.00  0.00    +0.000 A 
ATOM     10  C   UNL     1      64.217  64.834  69.545  0.00  0.00    +0.000 A 
ATOM     11  C   UNL     1      64.685  65.498  69.686  0.00  0.00    +0.000 A 
ATOM     12  C   UNL     1      64.583  65.935  70.377  0.00  0.00    +0.000 A 
ATOM     13  C   UNL     1      64.013  65.709  70.929  0.00  0.00    +0.000 A 
ATOM     14  C   UNL     1      65.052  66.601  70.518  0.00  0.00    +0.000 C 
ATOM     15  C   UNL     1      65.622  66.827  69.966  0.00  0.00    +0.000 C 
ATOM     16  N   UNL     1      64.950  67.038  71.210  0.00  0.00    +0.000 NA
ATOM     17  C   UNL     1      65.418  67.702  71.350  0.00  0.00    +0.000 C 
ATOM     18  C   UNL     1      64.380  66.811  71.761  0.00  0.00    +0.000 C 
ENDROOT
TORSDOF 0
ENDMDL
MODEL 5
REMARK VINA RESULT:    -8.133      5.318      6.826
REMARK INTER + INTRA:          -8.133
REMARK INTER:                  -8.133
REMARK INTRA:                   0.000
REMARK UNBOUND:                 0.000
ROOT
REMARK  Name = rivastigmine
REMARK                            x       y       z     vdW  Elec       q    Type
REMARK                         _______ _______ _______ _____ _____    ______ ____
ATOM      1  C   UNL     1      65.939  67.457  70.307  0.00  0.00    +0.000 C 
ATOM      2  C   UNL     1      65.313  67.308  70.824  0.00  0.00    +0.000 C 
ATOM      3  N   UNL     1      64.860  66.623  70.736  0.00  0.00    +0.000 N 
ATOM      4  C   UNL     1      65.033  66.088  70.132  0.00  0.00    +0.000 C 
ATOM      5  C   UNL     1      64.234  66.473  71.253  0.00  0.00    +0.000 C 
ATOM      6  O   UNL     1      64.062  67.007  71.857  0.00  0.00    +0.000 OA
ATOM      7  O   UNL     1      63.782  65.789  71.165  0.00  0.00    +0.000 OA
ATOM      8  C   UNL     1      63.157  65.640  71.682  0.00  0.00    +0.000 A 
ATOM      9  C   UNL     1      62.984  66.174  72.286  0.00  0.00    +0.000 A 
ATOM     10  C   UNL     1      62.358  66.025  72.803  0.00  0.00    +0.000 A 
ATOM     11  C   UNL     1      61.906  65.340  72.715  0.00  0.00    +0.000 A 
ATOM     12  C   UNL     1      62.078  64.807  72.111  0.00  0.00    +0.000 A 
ATOM     13  C   UNL     1      62.704  64.956  71.594  0.00  0.00    +0.000 A 
ATOM     14  C   UNL     1      61.625  64.122  72.024  0.00  0.00    +0.000 C 
ATOM     15  C   UNL     1      61.000  63.973  72.541  0.00  0.00    +0.000 C 
ATOM     16  N   UNL     1      61.798  63.587  71.419  0.00  0.00    +0.000 NA
ATOM     17  C   UNL     1      61.345  62.904  71.332  0.00  0.00    +0.000 C 
ATOM     18  C   UNL     1      62.424  63.738  70.903  0.00  0.00    +0.000 C 
ENDROOT
TORSDOF 0
ENDMDL
MODEL 6
REMARK VINA RESULT:    -8.065      2.206      3.707
REMARK INTER + INTRA:          -8.065
REMARK INTER:                  -8.065
REMARK INTRA:                   0.000
REMARK UNBOUND:                 0.000
ROOT
REMARK  Name = rivastigmine
REMARK                            x       y       z     vdW  Elec       q    Type
REMARK                         _______ _______ _______ _____ _____    ______ ____
ATOM      1  C   UNL     1      59.202  66.036  72.484  0.00  0.00    +0.000 C 
ATOM      2  C   UNL     1      59.411  65.277  72.238  0.00  0.00    +0.000 C 
ATOM      3  N   UNL     1      59.623  65.143  71.451  0.00  0.00    +0.000 N 
ATOM      4  C   UNL     1      59.627  65.768  70.913  0.00  0.00    +0.000 C 
ATOM      5  C   UNL     1      59.832  64.384  71.204  0.00  0.00    +0.000 C 
ATOM      6  O   UNL     1      59.828  63.759  71.741  0.00  0.00    +0.000 OA
ATOM      7  O   UNL     1      60.044  64.250  70.418  0.00  0.00    +0.000 OA
ATOM      8  C   UNL     1      60.253  63.491  70.171  0.00  0.00    +0.000 A 
ATOM      9  C   UNL     1      60.249  62.867  70.709  0.00  0.00    +0.000 A 
ATOM     10  C   UNL     1      60.458  62.107  70.461  0.00  0.00    +0.000 A 
ATOM     11  C   UNL     1      60.670  61.974  69.676  0.00  0.00    +0.000 A 
ATOM     12  C   UNL     1      60.674  62.599  69.138  0.00  0.00    +0.000 A 
ATOM     13  C   UNL     1      60.465  63.358  69.384  0.00  0.00    +0.000 A 
ATOM     14  C   UNL     1      60.886  62.465  68.351  0.00  0.00    +0.000 C 
ATOM     15  C   UNL     1      61.095  61.706  68.104  0.00  0.00    +0.000 C 
ATOM     16  N   UNL     1      60.890  63.090  67.813  0.00  0.00    +0.000 NA
ATOM     17  C   UNL     1      61.102  62.956  67.028  0.00  0.00    +0.000 C 
ATOM     18  C   UNL     1      60.681  63.849  68.061  0.00  0.00    +0.000 C 
ENDROOT
TORSDOF 0
ENDMDL
MODEL 7
REMARK VINA RESULT:    -7.911      4.576      6.819
REMARK INTER + INTRA:          -7.911
REMARK INTER:                  -7.911
REMARK INTRA:                   0.000
REMARK UNBOUND:                 0.000
ROOT
REMARK  Name = rivastigmine
REMARK                            x       y       z     vdW  Elec       q    Type
REMARK                         _______ _______ _______ _____ _____    ______ ____
ATOM      1  C   UNL     1      60.506  61.940  70.639  0.00  0.00    +0.000 C 
ATOM      2  C   UNL     1      61.168  62.432  70.622  0.00  0.00    +0.000 C 
ATOM      3  N   UNL     1      61.159  63.149  71.032  0.00  0.00    +0.000 N 
ATOM      4  C   UNL     1      60.488  63.373  71.457  0.00  0.00    +0.000 C 
ATOM      5  C   UNL     1      61.821  63.642  71.016  0.00  0.00    +0.000 C 
ATOM      6  O   UNL     1      62.491  63.418  70.591  0.00  0.00    +0.000 OA
ATOM      7  O   UNL     1      61.812  64.358  71.425  0.00  0.00    +0.000 OA
ATOM      8  C   UNL     1      62.474  64.849  71.409  0.00  0.00    +0.000 A 
ATOM      9  C   UNL     1      63.144  64.626  70.984  0.00  0.00    +0.000 A 
ATOM     10  C   UNL     1      63.806  65.118  70.968  0.00  0.00    +0.000 A 
ATOM     11  C   UNL     1      63.797  65.834  71.377  0.00  0.00    +0.000 A 
ATOM     12  C   UNL     1      63.127  66.058  71.802  0.00  0.00    +0.000 A 
ATOM     13  C   UNL     1      62.465  65.566  71.818  0.00  0.00    +0.000 A 
ATOM     14  C   UNL     1      63.118  66.775  72.211  0.00  0.00    +0.000 C 
ATOM     15  C   UNL     1      63.780  67.267  72.195  0.00  0.00    +0.000 C 
ATOM     16  N   UNL     1      62.447  66.999  72.637  0.00  0.00    +0.000 NA
ATOM     17  C   UNL     1      62.438  67.715  73.045  0.00  0.00    +0.000 C 
ATOM     18  C   UNL     1      61.785  66.506  72.652  0.00  0.00    +0.000 C 
ENDROOT
TORSDOF 0
ENDMDL
MODEL 8
REMARK VINA RESULT:    -7.595      5.171      6.485
REMARK INTER + INTRA:          -7.595
REMARK INTER:                  -7.595
REMARK INTRA:                   0.000
REMARK UNBOUND:                 0.000
ROOT
REMARK  Name = rivastigmine
REMARK                            x       y       z     vdW  Elec       q    Type
REMARK                         _______ _______ _______ _____ _____    ______ ____
ATOM      1  C   UNL     1      63.234  68.732  72.871  0.00  0.00    +0.000 C 
ATOM      2  C   UNL     1      63.360  68.016  72.481  0.00  0.00    +0.000 C 
ATOM      3  N   UNL     1      62.771  67.437  72.482  0.00  0.00    +0.000 N 
ATOM      4  C   UNL     1      62.057  67.575  72.873  0.00  0.00    +0.000 C 
ATOM      5  C   UNL     1      62.897  66.720  72.092  0.00  0.00    +0.000 C 
ATOM      6  O   UNL     1      63.609  66.583  71.703  0.00  0.00    +0.000 OA
ATOM      7  O   UNL     1      62.308  66.142  72.094  0.00  0.00    +0.000 OA
ATOM      8  C   UNL     1      62.434  65.426  71.704  0.00  0.00    +0.000 A 
ATOM      9  C   UNL     1      63.147  65.289  71.314  0.00  0.00    +0.000 A 
ATOM     10  C   UNL     1      63.272  64.572  70.924  0.00  0.00    +0.000 A 
ATOM     11  C   UNL     1      62.684  63.994  70.926  0.00  0.00    +0.000 A 
ATOM     12  C   UNL     1      61.971  64.131  71.315  0.00  0.00    +0.000 A 
ATOM     13  C   UNL     1      61.845  64.847  71.705  0.00  0.00    +0.000 A 
ATOM     14  C   UNL     1      61.382  63.552  71.316  0.00  0.00    +0.000 C 
ATOM     15  C   UNL     1      61.508  62.836  70.927  0.00  0.00    +0.000 C 
ATOM     16  N   UNL     1      60.669  63.690  71.707  0.00  0.00    +0.000 NA
ATOM     17  C   UNL     1      60.081  63.112  71.708  0.00  0.00    +0.000 C 
ATOM     18  C   UNL     1      60.544  64.407  72.096  0.00  0.00    +0.000 C 
ENDROOT
TORSDOF 0
ENDMDL
MODEL 9
REMARK VINA RESULT:    -7.584     24.895     25.659
REMARK INTER + INTRA:          -7.584
REMARK INTER:                  -7.584
REMARK INTRA:                   0.000
REMARK UNBOUND:                 0.000
ROOT
REMARK  Name = rivastigmine
REMARK                            x       y       z     vdW  Elec       q    Type
REMARK                         _______ _______ _______ _____ _____    ______ ____
ATOM      1  C   UNL     1      70.505  81.701  53.707  0.00  0.00    +0.000 C 
ATOM      2  C   UNL     1      70.240  81.207  53.102  0.00  0.00    +0.000 C 
ATOM      3  N   UNL     1      70.742  81.018  52.474  0.00  0.00    +0.000 N 
ATOM      4  C   UNL     1      71.507  81.324  52.452  0.00  0.00    +0.000 C 
ATOM      5  C   UNL     1      70.477  80.523  51.869  0.00  0.00    +0.000 C 
ATOM      6  O   UNL     1      69.712  80.217  51.891  0.00  0.00    +0.000 OA
ATOM      7  O   UNL     1      70.978  80.335  51.241  0.00  0.00    +0.000 OA
ATOM      8  C   UNL     1      70.713  79.841  50.637  0.00  0.00    +0.000 A 
ATOM      9  C   UNL     1      69.948  79.535  50.659  0.00  0.00    +0.000 A 
ATOM     10  C   UNL     1      69.683  79.040  50.054  0.00  0.00    +0.000 A 
ATOM     11  C   UNL     1      70.184  78.852  49.427  0.00  0.00    +0.000 A 
ATOM     12  C   UNL     1      70.949  79.158  49.404  0.00  0.00    +0.000 A 
ATOM     13  C   UNL     1      71.214  79.653  50.009  0.00  0.00    +0.000 A 
ATOM     14  C   UNL     1      71.451  78.970  48.776  0.00  0.00    +0.000 C 
ATOM     15  C   UNL     1      71.186  78.475  48.171  0.00  0.00    +0.000 C 
ATOM     16  N   UNL     1      72.217  79.276  48.753  0.00  0.00    +0.000 NA
ATOM     17  C   UNL     1      72.717  79.088  48.126  0.00  0.00    +0.000 C 
ATOM     18  C   UNL     1      72.481  79.770  49.358  0.00  0.00    +0.000 C 
ENDROOT
TORSDOF 0
ENDMDL
