MODEL 1
REMARK VINA RESULT:   -16.151      0.000      0.000
REMARK INTER + INTRA:         -16.151
REMARK INTER:                 -16.151
REMARK INTRA:                   0.000
REMARK UNBOUND:                 0.000
ROOT
REMARK  Name = rolapitant
REMARK                            x       y       z     vdW  Elec       q    Type
REMARK                         _______ _______ _______ _____ _____    ______ ____
ATOM      1  C   UNL     1      63.059  64.623  71.348  0.00  0.00    +0.000 C 
ATOM      2  C   UNL     1      62.668  65.282  71.657  0.00  0.00    +0.000 C 
ATOM      3  O   UNL     1      61.860  65.242  71.820  0.00  0.00    +0.000 OA
ATOM      4  C   UNL     1      61.443  64.546  71.674  0.00  0.00    +0.000 C 
ATOM      5  C   UNL     1      60.635  64.506  71.836  0.00  0.00    +0.000 C 
ATOM      6  C   UNL     1      59.871  64.203  71.900  0.00  0.00    +0.000 C 
ATOM      7  C   UNL     1      59.262  64.675  72.194  0.00  0.00    +0.000 C 
ATOM      8  C   UNL     1      59.417  65.451  72.424  0.00  0.00    +0.000 C 
ATOM      9  C   UNL     1      58.630  65.225  72.519  0.00  0.00    +0.000 C 
ATOM     10  C   UNL     1      58.214  65.867  72.828  0.00  0.00    +0.000 C 
ATOM     11  C   UNL     1      58.745  66.491  72.925  0.00  0.00    +0.000 C 
ATOM     12  O   UNL     1      58.565  67.240  73.219  0.00  0.00    +0.000 OA
ATOM     13  N   UNL     1      59.489  66.234  72.675  0.00  0.00    +0.000 NA
ATOM     14  C   UNL     1      60.181  65.756  72.361  0.00  0.00    +0.000 C 
ATOM     15  N   UNL     1      60.790  65.283  72.067  0.00  0.00    +0.000 NA
ATOM     16  C   UNL     1      60.760  63.744  71.550  0.00  0.00    +0.000 A 
ATOM     17  C   UNL     1      61.514  63.512  71.306  0.00  0.00    +0.000 A 
ATOM     18  C   UNL     1      61.640  62.749  71.019  0.00  0.00    +0.000 A 
ATOM     19  C   UNL     1      61.012  62.217  70.975  0.00  0.00    +0.000 A 
ATOM     20  C   UNL     1      60.257  62.448  71.218  0.00  0.00    +0.000 A 
ATOM     21  C   UNL     1      60.132  63.211  71.505  0.00  0.00    +0.000 A 
ATOM     22  C   UNL     1      63.085  65.978  71.803  0.00  0.00    +0.000 A 
ATOM     23  C   UNL     1      62.694  66.635  72.112  0.00  0.00    +0.000 A 
ATOM     24  C   UNL     1      63.111  67.333  72.259  0.00  0.00    +0.000 A 
ATOM     25  C   UNL     1      63.919  67.371  72.096  0.00  0.00    +0.000 A 
ATOM     26  C   UNL     1      64.310  66.714  71.787  0.00  0.00    +0.000 A 
ATOM     27  C   UNL     1      63.892  66.017  71.640  0.00  0.00    +0.000 A 
ATOM     28  C   UNL     1      65.118  66.753  71.624  0.00  0.00    +0.000 C 
ATOM     29  F   UNL     1      65.925  66.791  71.461  0.00  0.00    +0.000 F 
ATOM     30  F   UNL     1      65.102  65.971  71.361  0.00  0.00    +0.000 F 
ATOM     31  F   UNL     1      65.132  67.535  71.887  0.00  0.00    +0.000 F 
ATOM     32  C   UNL     1      62.720  67.990  72.568  0.00  0.00    +0.000 C 
ATOM     33  F   UNL     1      62.330  68.647  72.877  0.00  0.00    +0.000 F 
ATOM     34  F   UNL     1      63.427  68.415  72.558  0.00  0.00    +0.000 F 
ATOM     35  F   UNL     1      62.013  67.565  72.578  0.00  0.00    +0.000 F 
ENDROOT
TORSDOF 0
ENDMDL
MODEL 2
REMARK VINA RESULT:   -15.848      1.795      3.325
REMARK INTER + INTRA:         -15.848
REMARK INTER:                 -15.848
REMARK INTRA:                   0.000
REMARK UNBOUND:                 0.000
ROOT
REMARK  Name = rolapitant
REMARK                            x       y       z     vdW  Elec       q    Type
REMARK                         _______ _______ _______ _____ _____    ______ ____
ATOM      1  C   UNL     1      62.495  65.770  72.197  0.00  0.00    +0.000 C 
ATOM      2  C   UNL     1      62.752  65.516  71.454  0.00  0.00    +0.000 C 
ATOM      3  O   UNL     1      62.260  65.046  70.986  0.00  0.00    +0.000 OA
ATOM      4  C   UNL     1      61.513  64.830  71.260  0.00  0.00    +0.000 C 
ATOM      5  C   UNL     1      61.022  64.360  70.794  0.00  0.00    +0.000 C 
ATOM      6  C   UNL     1      60.362  63.926  70.554  0.00  0.00    +0.000 C 
ATOM      7  C   UNL     1      60.359  63.552  69.819  0.00  0.00    +0.000 C 
ATOM      8  C   UNL     1      61.015  63.612  69.323  0.00  0.00    +0.000 C 
ATOM      9  C   UNL     1      60.398  63.161  69.011  0.00  0.00    +0.000 C 
ATOM     10  C   UNL     1      60.630  62.894  68.265  0.00  0.00    +0.000 C 
ATOM     11  C   UNL     1      61.389  63.179  68.117  0.00  0.00    +0.000 C 
ATOM     12  O   UNL     1      61.833  63.044  67.435  0.00  0.00    +0.000 OA
ATOM     13  N   UNL     1      61.628  63.623  68.770  0.00  0.00    +0.000 NA
ATOM     14  C   UNL     1      61.675  64.046  69.561  0.00  0.00    +0.000 C 
ATOM     15  N   UNL     1      61.678  64.420  70.297  0.00  0.00    +0.000 NA
ATOM     16  C   UNL     1      60.536  64.463  71.452  0.00  0.00    +0.000 A 
ATOM     17  C   UNL     1      60.799  64.912  72.092  0.00  0.00    +0.000 A 
ATOM     18  C   UNL     1      60.314  65.016  72.751  0.00  0.00    +0.000 A 
ATOM     19  C   UNL     1      59.566  64.670  72.770  0.00  0.00    +0.000 A 
ATOM     20  C   UNL     1      59.302  64.220  72.130  0.00  0.00    +0.000 A 
ATOM     21  C   UNL     1      59.788  64.117  71.471  0.00  0.00    +0.000 A 
ATOM     22  C   UNL     1      63.499  65.732  71.180  0.00  0.00    +0.000 A 
ATOM     23  C   UNL     1      63.756  65.478  70.438  0.00  0.00    +0.000 A 
ATOM     24  C   UNL     1      64.504  65.693  70.164  0.00  0.00    +0.000 A 
ATOM     25  C   UNL     1      64.994  66.164  70.632  0.00  0.00    +0.000 A 
ATOM     26  C   UNL     1      64.738  66.418  71.374  0.00  0.00    +0.000 A 
ATOM     27  C   UNL     1      63.990  66.201  71.648  0.00  0.00    +0.000 A 
ATOM     28  C   UNL     1      65.229  66.887  71.842  0.00  0.00    +0.000 C 
ATOM     29  F   UNL     1      65.720  67.357  72.309  0.00  0.00    +0.000 F 
ATOM     30  F   UNL     1      64.649  66.909  72.428  0.00  0.00    +0.000 F 
ATOM     31  F   UNL     1      65.809  66.865  71.254  0.00  0.00    +0.000 F 
ATOM     32  C   UNL     1      64.760  65.440  69.422  0.00  0.00    +0.000 C 
ATOM     33  F   UNL     1      65.016  65.186  68.680  0.00  0.00    +0.000 F 
ATOM     34  F   UNL     1      65.475  65.835  69.534  0.00  0.00    +0.000 F 
ATOM     35  F   UNL     1      64.045  65.044  69.310  0.00  0.00    +0.000 F 
ENDROOT
TORSDOF 0
ENDMDL
MODEL 3
REMARK VINA RESULT:   -15.730      4.076      6.050
REMARK INTER + INTRA:         -15.730
REMARK INTER:                 -15.730
REMARK INTRA:                   0.000
REMARK UNBOUND:                 0.000
ROOT
REMARK  Name = rolapitant
REMARK                            x       y       z     vdW  Elec       q    Type
REMARK                         _______ _______ _______ _____ _____    ______ ____
ATOM      1  C   UNL     1      59.773  62.901  69.269  0.00  0.00    +0.000 C 
ATOM      2  C   UNL     1      60.471  63.059  68.856  0.00  0.00    +0.000 C 
ATOM      3  O   UNL     1      61.112  63.401  69.247  0.00  0.00    +0.000 OA
ATOM      4  C   UNL     1      61.057  63.585  70.049  0.00  0.00    +0.000 C 
ATOM      5  C   UNL     1      61.697  63.926  70.441  0.00  0.00    +0.000 C 
ATOM      6  C   UNL     1      62.151  64.253  71.047  0.00  0.00    +0.000 C 
ATOM      7  C   UNL     1      62.922  64.505  70.895  0.00  0.00    +0.000 C 
ATOM      8  C   UNL     1      63.238  64.432  70.138  0.00  0.00    +0.000 C 
ATOM      9  C   UNL     1      63.755  64.767  70.686  0.00  0.00    +0.000 C 
ATOM     10  C   UNL     1      64.464  64.936  70.298  0.00  0.00    +0.000 C 
ATOM     11  C   UNL     1      64.385  64.705  69.510  0.00  0.00    +0.000 C 
ATOM     12  O   UNL     1      64.961  64.773  68.924  0.00  0.00    +0.000 OA
ATOM     13  N   UNL     1      63.627  64.393  69.411  0.00  0.00    +0.000 NA
ATOM     14  C   UNL     1      62.785  64.105  69.530  0.00  0.00    +0.000 C 
ATOM     15  N   UNL     1      62.014  63.853  69.682  0.00  0.00    +0.000 NA
ATOM     16  C   UNL     1      61.158  63.882  71.063  0.00  0.00    +0.000 A 
ATOM     17  C   UNL     1      60.407  63.565  70.936  0.00  0.00    +0.000 A 
ATOM     18  C   UNL     1      59.867  63.520  71.558  0.00  0.00    +0.000 A 
ATOM     19  C   UNL     1      60.079  63.791  72.307  0.00  0.00    +0.000 A 
ATOM     20  C   UNL     1      60.831  64.108  72.435  0.00  0.00    +0.000 A 
ATOM     21  C   UNL     1      61.370  64.153  71.812  0.00  0.00    +0.000 A 
ATOM     22  C   UNL     1      60.527  62.875  68.054  0.00  0.00    +0.000 A 
ATOM     23  C   UNL     1      61.224  63.034  67.643  0.00  0.00    +0.000 A 
ATOM     24  C   UNL     1      61.280  62.850  66.840  0.00  0.00    +0.000 A 
ATOM     25  C   UNL     1      60.638  62.508  66.450  0.00  0.00    +0.000 A 
ATOM     26  C   UNL     1      59.941  62.350  66.861  0.00  0.00    +0.000 A 
ATOM     27  C   UNL     1      59.885  62.533  67.664  0.00  0.00    +0.000 A 
ATOM     28  C   UNL     1      59.300  62.008  66.471  0.00  0.00    +0.000 C 
ATOM     29  F   UNL     1      58.659  61.666  66.081  0.00  0.00    +0.000 F 
ATOM     30  F   UNL     1      58.865  62.022  67.172  0.00  0.00    +0.000 F 
ATOM     31  F   UNL     1      59.735  61.993  65.770  0.00  0.00    +0.000 F 
ATOM     32  C   UNL     1      61.977  63.008  66.428  0.00  0.00    +0.000 C 
ATOM     33  F   UNL     1      62.674  63.167  66.016  0.00  0.00    +0.000 F 
ATOM     34  F   UNL     1      61.639  62.705  65.740  0.00  0.00    +0.000 F 
ATOM     35  F   UNL     1      62.315  63.312  67.117  0.00  0.00    +0.000 F 
ENDROOT
TORSDOF 0
ENDMDL
MODEL 4
REMARK VINA RESULT:   -14.544      2.340      4.559
REMARK INTER + INTRA:         -14.544
REMARK INTER:                 -14.544
REMARK INTRA:                   0.000
REMARK UNBOUND:                 0.000
ROOT
REMARK  Name = rolapitant
REMARK                            x       y       z     vdW  Elec       q    Type
REMARK                         _______ _______ _______ _____ _____    ______ ____
ATOM      1  C   UNL     1      59.377  64.420  71.385  0.00  0.00    +0.000 C 
ATOM      2  C   UNL     1      60.187  64.567  71.315  0.00  0.00    +0.000 C 
ATOM      3  O   UNL     1      60.512  65.250  71.645  0.00  0.00    +0.000 OA
ATOM      4  C   UNL     1      60.028  65.785  72.045  0.00  0.00    +0.000 C 
ATOM      5  C   UNL     1      60.352  66.468  72.375  0.00  0.00    +0.000 C 
ATOM      6  C   UNL     1      60.403  67.186  72.778  0.00  0.00    +0.000 C 
ATOM      7  C   UNL     1      61.132  67.565  72.857  0.00  0.00    +0.000 C 
ATOM      8  C   UNL     1      61.809  67.226  72.533  0.00  0.00    +0.000 C 
ATOM      9  C   UNL     1      61.945  67.942  72.918  0.00  0.00    +0.000 C 
ATOM     10  C   UNL     1      62.750  68.114  72.863  0.00  0.00    +0.000 C 
ATOM     11  C   UNL     1      63.113  67.503  72.443  0.00  0.00    +0.000 C 
ATOM     12  O   UNL     1      63.915  67.451  72.260  0.00  0.00    +0.000 OA
ATOM     13  N   UNL     1      62.531  66.954  72.239  0.00  0.00    +0.000 NA
ATOM     14  C   UNL     1      61.760  66.507  72.129  0.00  0.00    +0.000 C 
ATOM     15  N   UNL     1      61.031  66.129  72.051  0.00  0.00    +0.000 NA
ATOM     16  C   UNL     1      59.562  66.570  72.585  0.00  0.00    +0.000 A 
ATOM     17  C   UNL     1      59.000  66.005  72.368  0.00  0.00    +0.000 A 
ATOM     18  C   UNL     1      58.209  66.107  72.577  0.00  0.00    +0.000 A 
ATOM     19  C   UNL     1      57.979  66.774  73.004  0.00  0.00    +0.000 A 
ATOM     20  C   UNL     1      58.540  67.340  73.222  0.00  0.00    +0.000 A 
ATOM     21  C   UNL     1      59.331  67.237  73.012  0.00  0.00    +0.000 A 
ATOM     22  C   UNL     1      60.670  64.032  70.915  0.00  0.00    +0.000 A 
ATOM     23  C   UNL     1      61.479  64.179  70.845  0.00  0.00    +0.000 A 
ATOM     24  C   UNL     1      61.963  63.643  70.445  0.00  0.00    +0.000 A 
ATOM     25  C   UNL     1      61.637  62.960  70.115  0.00  0.00    +0.000 A 
ATOM     26  C   UNL     1      60.829  62.813  70.185  0.00  0.00    +0.000 A 
ATOM     27  C   UNL     1      60.345  63.349  70.585  0.00  0.00    +0.000 A 
ATOM     28  C   UNL     1      60.503  62.131  69.855  0.00  0.00    +0.000 C 
ATOM     29  F   UNL     1      60.178  61.448  69.525  0.00  0.00    +0.000 F 
ATOM     30  F   UNL     1      59.758  62.355  70.126  0.00  0.00    +0.000 F 
ATOM     31  F   UNL     1      61.250  61.907  69.584  0.00  0.00    +0.000 F 
ATOM     32  C   UNL     1      62.772  63.791  70.375  0.00  0.00    +0.000 C 
ATOM     33  F   UNL     1      63.580  63.938  70.306  0.00  0.00    +0.000 F 
ATOM     34  F   UNL     1      62.863  63.088  69.954  0.00  0.00    +0.000 F 
ATOM     35  F   UNL     1      62.680  64.494  70.797  0.00  0.00    +0.000 F 
ENDROOT
TORSDOF 0
ENDMDL
MODEL 5
REMARK VINA RESULT:   -14.483      3.673      5.415
REMARK INTER + INTRA:         -14.483
REMARK INTER:                 -14.483
REMARK INTRA:                   0.000
REMARK UNBOUND:                 0.000
ROOT
REMARK  Name = rolapitant
REMARK                            x       y       z     vdW  Elec       q    Type
REMARK                         _______ _______ _______ _____ _____    ______ ____
ATOM      1  C   UNL     1      62.583  64.333  68.098  0.00  0.00    +0.000 C 
ATOM      2  C   UNL     1      62.118  63.882  68.611  0.00  0.00    +0.000 C 
ATOM      3  O   UNL     1      62.132  64.034  69.422  0.00  0.00    +0.000 OA
ATOM      4  C   UNL     1      62.610  64.636  69.721  0.00  0.00    +0.000 C 
ATOM      5  C   UNL     1      62.625  64.789  70.531  0.00  0.00    +0.000 C 
ATOM      6  C   UNL     1      62.823  65.139  71.251  0.00  0.00    +0.000 C 
ATOM      7  C   UNL     1      62.484  64.865  71.951  0.00  0.00    +0.000 C 
ATOM      8  C   UNL     1      61.946  64.241  71.931  0.00  0.00    +0.000 C 
ATOM      9  C   UNL     1      62.091  64.535  72.688  0.00  0.00    +0.000 C 
ATOM     10  C   UNL     1      61.636  64.100  73.222  0.00  0.00    +0.000 C 
ATOM     11  C   UNL     1      61.210  63.537  72.795  0.00  0.00    +0.000 C 
ATOM     12  O   UNL     1      60.685  62.984  73.111  0.00  0.00    +0.000 OA
ATOM     13  N   UNL     1      61.401  63.624  71.997  0.00  0.00    +0.000 NA
ATOM     14  C   UNL     1      61.746  63.890  71.212  0.00  0.00    +0.000 C 
ATOM     15  N   UNL     1      62.086  64.164  70.511  0.00  0.00    +0.000 NA
ATOM     16  C   UNL     1      63.158  65.360  70.269  0.00  0.00    +0.000 A 
ATOM     17  C   UNL     1      63.331  65.426  69.465  0.00  0.00    +0.000 A 
ATOM     18  C   UNL     1      63.865  65.997  69.203  0.00  0.00    +0.000 A 
ATOM     19  C   UNL     1      64.225  66.504  69.744  0.00  0.00    +0.000 A 
ATOM     20  C   UNL     1      64.052  66.439  70.549  0.00  0.00    +0.000 A 
ATOM     21  C   UNL     1      63.518  65.867  70.811  0.00  0.00    +0.000 A 
ATOM     22  C   UNL     1      61.640  63.280  68.312  0.00  0.00    +0.000 A 
ATOM     23  C   UNL     1      61.175  62.830  68.824  0.00  0.00    +0.000 A 
ATOM     24  C   UNL     1      60.697  62.228  68.525  0.00  0.00    +0.000 A 
ATOM     25  C   UNL     1      60.683  62.076  67.714  0.00  0.00    +0.000 A 
ATOM     26  C   UNL     1      61.148  62.526  67.202  0.00  0.00    +0.000 A 
ATOM     27  C   UNL     1      61.626  63.129  67.501  0.00  0.00    +0.000 A 
ATOM     28  C   UNL     1      61.134  62.375  66.391  0.00  0.00    +0.000 C 
ATOM     29  F   UNL     1      61.120  62.223  65.581  0.00  0.00    +0.000 F 
ATOM     30  F   UNL     1      61.678  62.982  66.268  0.00  0.00    +0.000 F 
ATOM     31  F   UNL     1      60.589  61.767  66.515  0.00  0.00    +0.000 F 
ATOM     32  C   UNL     1      60.232  61.778  69.037  0.00  0.00    +0.000 C 
ATOM     33  F   UNL     1      59.768  61.328  69.549  0.00  0.00    +0.000 F 
ATOM     34  F   UNL     1      59.948  61.342  68.397  0.00  0.00    +0.000 F 
ATOM     35  F   UNL     1      60.516  62.213  69.677  0.00  0.00    +0.000 F 
ENDROOT
TORSDOF 0
ENDMDL
MODEL 6
REMARK VINA RESULT:   -14.449      3.388      4.745
REMARK INTER + INTRA:         -14.449
REMARK INTER:                 -14.449
REMARK INTRA:                   0.000
REMARK UNBOUND:                 0.000
ROOT
REMARK  Name = rolapitant
REMARK                            x       y       z     vdW  Elec       q    Type
REMARK                         _______ _______ _______ _____ _____    ______ ____
ATOM      1  C   UNL     1      60.910  61.683  69.893  0.00  0.00    +0.000 C 
ATOM      2  C   UNL     1      60.775  62.498  69.870  0.00  0.00    +0.000 C 
ATOM      3  O   UNL     1      60.944  62.962  70.531  0.00  0.00    +0.000 OA
ATOM      4  C   UNL     1      61.248  62.613  71.214  0.00  0.00    +0.000 C 
ATOM      5  C   UNL     1      61.417  63.077  71.874  0.00  0.00    +0.000 C 
ATOM      6  C   UNL     1      61.663  63.284  72.634  0.00  0.00    +0.000 C 
ATOM      7  C   UNL     1      61.630  64.072  72.878  0.00  0.00    +0.000 C 
ATOM      8  C   UNL     1      61.351  64.652  72.362  0.00  0.00    +0.000 C 
ATOM      9  C   UNL     1      61.576  64.940  73.101  0.00  0.00    +0.000 C 
ATOM     10  C   UNL     1      61.451  65.756  73.106  0.00  0.00    +0.000 C 
ATOM     11  C   UNL     1      61.148  65.972  72.369  0.00  0.00    +0.000 C 
ATOM     12  O   UNL     1      60.944  66.735  72.134  0.00  0.00    +0.000 OA
ATOM     13  N   UNL     1      61.086  65.289  71.910  0.00  0.00    +0.000 NA
ATOM     14  C   UNL     1      61.105  64.445  71.602  0.00  0.00    +0.000 C 
ATOM     15  N   UNL     1      61.138  63.658  71.358  0.00  0.00    +0.000 NA
ATOM     16  C   UNL     1      61.637  62.336  72.161  0.00  0.00    +0.000 A 
ATOM     17  C   UNL     1      61.565  61.669  71.679  0.00  0.00    +0.000 A 
ATOM     18  C   UNL     1      61.785  60.928  71.966  0.00  0.00    +0.000 A 
ATOM     19  C   UNL     1      62.077  60.852  72.733  0.00  0.00    +0.000 A 
ATOM     20  C   UNL     1      62.150  61.519  73.215  0.00  0.00    +0.000 A 
ATOM     21  C   UNL     1      61.929  62.260  72.928  0.00  0.00    +0.000 A 
ATOM     22  C   UNL     1      60.471  62.846  69.187  0.00  0.00    +0.000 A 
ATOM     23  C   UNL     1      60.337  63.660  69.165  0.00  0.00    +0.000 A 
ATOM     24  C   UNL     1      60.033  64.010  68.481  0.00  0.00    +0.000 A 
ATOM     25  C   UNL     1      59.864  63.544  67.821  0.00  0.00    +0.000 A 
ATOM     26  C   UNL     1      59.998  62.731  67.843  0.00  0.00    +0.000 A 
ATOM     27  C   UNL     1      60.302  62.382  68.527  0.00  0.00    +0.000 A 
ATOM     28  C   UNL     1      59.829  62.266  67.183  0.00  0.00    +0.000 C 
ATOM     29  F   UNL     1      59.660  61.801  66.523  0.00  0.00    +0.000 F 
ATOM     30  F   UNL     1      60.082  61.595  67.591  0.00  0.00    +0.000 F 
ATOM     31  F   UNL     1      59.576  62.938  66.776  0.00  0.00    +0.000 F 
ATOM     32  C   UNL     1      59.898  64.823  68.459  0.00  0.00    +0.000 C 
ATOM     33  F   UNL     1      59.763  65.636  68.436  0.00  0.00    +0.000 F 
ATOM     34  F   UNL     1      59.625  64.756  67.684  0.00  0.00    +0.000 F 
ATOM     35  F   UNL     1      60.171  64.889  69.234  0.00  0.00    +0.000 F 
ENDROOT
TORSDOF 0
ENDMDL
MODEL 7
REMARK VINA RESULT:   -13.580      3.738      4.996
REMARK INTER + INTRA:         -13.580
REMARK INTER:                 -13.580
REMARK INTRA:                   0.000
REMARK UNBOUND:                 0.000
ROOT
REMARK  Name = rolapitant
REMARK                            x       y       z     vdW  Elec       q    Type
REMARK                         _______ _______ _______ _____ _____    ______ ____
ATOM      1  C   UNL     1      61.002  64.877  68.290  0.00  0.00    +0.000 C 
ATOM      2  C   UNL     1      60.687  64.422  68.903  0.00  0.00    +0.000 C 
ATOM      3  O   UNL     1      60.347  64.792  69.558  0.00  0.00    +0.000 OA
ATOM      4  C   UNL     1      60.323  65.615  69.601  0.00  0.00    +0.000 C 
ATOM      5  C   UNL     1      59.984  65.985  70.255  0.00  0.00    +0.000 C 
ATOM      6  C   UNL     1      59.722  66.584  70.758  0.00  0.00    +0.000 C 
ATOM      7  C   UNL     1      59.354  66.393  71.472  0.00  0.00    +0.000 C 
ATOM      8  C   UNL     1      59.248  65.603  71.682  0.00  0.00    +0.000 C 
ATOM      9  C   UNL     1      58.960  66.139  72.238  0.00  0.00    +0.000 C 
ATOM     10  C   UNL     1      58.638  65.709  72.864  0.00  0.00    +0.000 C 
ATOM     11  C   UNL     1      58.727  64.907  72.695  0.00  0.00    +0.000 C 
ATOM     12  O   UNL     1      58.483  64.280  73.173  0.00  0.00    +0.000 OA
ATOM     13  N   UNL     1      59.105  64.841  71.964  0.00  0.00    +0.000 NA
ATOM     14  C   UNL     1      59.510  65.003  71.179  0.00  0.00    +0.000 C 
ATOM     15  N   UNL     1      59.877  65.194  70.466  0.00  0.00    +0.000 NA
ATOM     16  C   UNL     1      60.207  66.647  69.818  0.00  0.00    +0.000 A 
ATOM     17  C   UNL     1      60.584  66.552  69.089  0.00  0.00    +0.000 A 
ATOM     18  C   UNL     1      60.808  67.215  68.651  0.00  0.00    +0.000 A 
ATOM     19  C   UNL     1      60.656  67.971  68.941  0.00  0.00    +0.000 A 
ATOM     20  C   UNL     1      60.279  68.067  69.670  0.00  0.00    +0.000 A 
ATOM     21  C   UNL     1      60.055  67.404  70.108  0.00  0.00    +0.000 A 
ATOM     22  C   UNL     1      60.711  63.599  68.860  0.00  0.00    +0.000 A 
ATOM     23  C   UNL     1      60.396  63.145  69.473  0.00  0.00    +0.000 A 
ATOM     24  C   UNL     1      60.421  62.321  69.431  0.00  0.00    +0.000 A 
ATOM     25  C   UNL     1      60.760  61.952  68.775  0.00  0.00    +0.000 A 
ATOM     26  C   UNL     1      61.075  62.406  68.163  0.00  0.00    +0.000 A 
ATOM     27  C   UNL     1      61.050  63.230  68.205  0.00  0.00    +0.000 A 
ATOM     28  C   UNL     1      61.414  62.037  67.508  0.00  0.00    +0.000 C 
ATOM     29  F   UNL     1      61.754  61.667  66.853  0.00  0.00    +0.000 F 
ATOM     30  F   UNL     1      61.582  62.774  67.179  0.00  0.00    +0.000 F 
ATOM     31  F   UNL     1      61.246  61.299  67.837  0.00  0.00    +0.000 F 
ATOM     32  C   UNL     1      60.106  61.867  70.043  0.00  0.00    +0.000 C 
ATOM     33  F   UNL     1      59.791  61.413  70.656  0.00  0.00    +0.000 F 
ATOM     34  F   UNL     1      60.316  61.178  69.641  0.00  0.00    +0.000 F 
ATOM     35  F   UNL     1      59.896  62.555  70.446  0.00  0.00    +0.000 F 
ENDROOT
TORSDOF 0
ENDMDL
MODEL 8
REMARK VINA RESULT:   -13.356     17.593     18.123
REMARK INTER + INTRA:         -13.356
REMARK INTER:                 -13.356
REMARK INTRA:                   0.000
REMARK UNBOUND:                 0.000
ROOT
REMARK  Name = rolapitant
REMARK                            x       y       z     vdW  Elec       q    Type
REMARK                         _______ _______ _______ _____ _____    ______ ____
ATOM      1  C   UNL     1      62.374  66.414  55.617  0.00  0.00    +0.000 C 
ATOM      2  C   UNL     1      62.321  67.106  55.170  0.00  0.00    +0.000 C 
ATOM      3  O   UNL     1      62.182  67.063  54.358  0.00  0.00    +0.000 OA
ATOM      4  C   UNL     1      62.097  66.329  53.992  0.00  0.00    +0.000 C 
ATOM      5  C   UNL     1      61.958  66.285  53.180  0.00  0.00    +0.000 C 
ATOM      6  C   UNL     1      61.822  65.964  52.433  0.00  0.00    +0.000 C 
ATOM      7  C   UNL     1      61.728  66.460  51.781  0.00  0.00    +0.000 C 
ATOM      8  C   UNL     1      61.770  67.278  51.876  0.00  0.00    +0.000 C 
ATOM      9  C   UNL     1      61.632  67.037  51.099  0.00  0.00    +0.000 C 
ATOM     10  C   UNL     1      61.574  67.713  50.629  0.00  0.00    +0.000 C 
ATOM     11  C   UNL     1      61.677  68.371  51.115  0.00  0.00    +0.000 C 
ATOM     12  O   UNL     1      61.662  69.160  50.874  0.00  0.00    +0.000 OA
ATOM     13  N   UNL     1      61.799  68.103  51.886  0.00  0.00    +0.000 NA
ATOM     14  C   UNL     1      61.907  67.600  52.623  0.00  0.00    +0.000 C 
ATOM     15  N   UNL     1      62.001  67.104  53.275  0.00  0.00    +0.000 NA
ATOM     16  C   UNL     1      61.964  65.482  53.367  0.00  0.00    +0.000 A 
ATOM     17  C   UNL     1      62.088  65.240  54.146  0.00  0.00    +0.000 A 
ATOM     18  C   UNL     1      62.093  64.437  54.334  0.00  0.00    +0.000 A 
ATOM     19  C   UNL     1      61.975  63.875  53.742  0.00  0.00    +0.000 A 
ATOM     20  C   UNL     1      61.851  64.116  52.962  0.00  0.00    +0.000 A 
ATOM     21  C   UNL     1      61.846  64.920  52.775  0.00  0.00    +0.000 A 
ATOM     22  C   UNL     1      62.406  67.841  55.536  0.00  0.00    +0.000 A 
ATOM     23  C   UNL     1      62.353  68.532  55.089  0.00  0.00    +0.000 A 
ATOM     24  C   UNL     1      62.439  69.267  55.455  0.00  0.00    +0.000 A 
ATOM     25  C   UNL     1      62.577  69.309  56.267  0.00  0.00    +0.000 A 
ATOM     26  C   UNL     1      62.630  68.618  56.714  0.00  0.00    +0.000 A 
ATOM     27  C   UNL     1      62.545  67.883  56.348  0.00  0.00    +0.000 A 
ATOM     28  C   UNL     1      62.769  68.661  57.526  0.00  0.00    +0.000 C 
ATOM     29  F   UNL     1      62.907  68.703  58.338  0.00  0.00    +0.000 F 
ATOM     30  F   UNL     1      62.750  67.837  57.572  0.00  0.00    +0.000 F 
ATOM     31  F   UNL     1      62.788  69.485  57.479  0.00  0.00    +0.000 F 
ATOM     32  C   UNL     1      62.386  69.959  55.008  0.00  0.00    +0.000 C 
ATOM     33  F   UNL     1      62.333  70.650  54.562  0.00  0.00    +0.000 F 
ATOM     34  F   UNL     1      62.515  70.408  55.688  0.00  0.00    +0.000 F 
ATOM     35  F   UNL     1      62.257  69.510  54.328  0.00  0.00    +0.000 F 
ENDROOT
TORSDOF 0
ENDMDL
