MODEL 1
REMARK VINA RESULT:   -11.159      0.000      0.000
REMARK INTER + INTRA:         -11.159
REMARK INTER:                 -11.159
REMARK INTRA:                   0.000
REMARK UNBOUND:                 0.000
ROOT
REMARK  Name = rotigotine
REMARK                            x       y       z     vdW  Elec       q    Type
REMARK                         _______ _______ _______ _____ _____    ______ ____
ATOM      1  C   UNL     1      61.883  63.875  68.704  0.00  0.00    +0.000 C 
ATOM      2  C   UNL     1      62.175  64.119  69.435  0.00  0.00    +0.000 C 
ATOM      3  C   UNL     1      62.803  64.653  69.471  0.00  0.00    +0.000 C 
ATOM      4  N   UNL     1      63.096  64.897  70.204  0.00  0.00    +0.000 NA
ATOM      5  C   UNL     1      62.761  64.607  70.899  0.00  0.00    +0.000 C 
ATOM      6  C   UNL     1      62.132  64.072  70.863  0.00  0.00    +0.000 C 
ATOM      7  C   UNL     1      61.797  63.783  71.559  0.00  0.00    +0.000 A 
ATOM      8  C   UNL     1      62.030  63.976  72.326  0.00  0.00    +0.000 A 
ATOM      9  C   UNL     1      61.546  63.560  72.850  0.00  0.00    +0.000 A 
ATOM     10  C   UNL     1      61.015  63.112  72.408  0.00  0.00    +0.000 A 
ATOM     11  S   UNL     1      61.170  63.249  71.609  0.00  0.00    +0.000 S 
ATOM     12  C   UNL     1      63.724  65.431  70.240  0.00  0.00    +0.000 C 
ATOM     13  C   UNL     1      64.059  65.721  69.544  0.00  0.00    +0.000 C 
ATOM     14  C   UNL     1      64.686  66.254  69.580  0.00  0.00    +0.000 C 
ATOM     15  C   UNL     1      64.979  66.498  70.312  0.00  0.00    +0.000 A 
ATOM     16  C   UNL     1      65.607  67.032  70.348  0.00  0.00    +0.000 A 
ATOM     17  O   UNL     1      65.942  67.322  69.652  0.00  0.00    +0.000 OA
ATOM     18  C   UNL     1      65.899  67.276  71.080  0.00  0.00    +0.000 A 
ATOM     19  C   UNL     1      65.564  66.986  71.776  0.00  0.00    +0.000 A 
ATOM     20  C   UNL     1      64.936  66.452  71.740  0.00  0.00    +0.000 A 
ATOM     21  C   UNL     1      64.644  66.208  71.007  0.00  0.00    +0.000 A 
ATOM     22  C   UNL     1      64.016  65.675  70.971  0.00  0.00    +0.000 C 
ENDROOT
TORSDOF 0
ENDMDL
MODEL 2
REMARK VINA RESULT:   -10.917      2.973      5.497
REMARK INTER + INTRA:         -10.917
REMARK INTER:                 -10.917
REMARK INTRA:                   0.000
REMARK UNBOUND:                 0.000
ROOT
REMARK  Name = rotigotine
REMARK                            x       y       z     vdW  Elec       q    Type
REMARK                         _______ _______ _______ _____ _____    ______ ____
ATOM      1  C   UNL     1      60.056  63.665  70.763  0.00  0.00    +0.000 C 
ATOM      2  C   UNL     1      60.639  63.652  70.180  0.00  0.00    +0.000 C 
ATOM      3  C   UNL     1      60.473  63.327  69.438  0.00  0.00    +0.000 C 
ATOM      4  N   UNL     1      61.056  63.314  68.855  0.00  0.00    +0.000 NA
ATOM      5  C   UNL     1      61.804  63.626  69.011  0.00  0.00    +0.000 C 
ATOM      6  C   UNL     1      61.969  63.950  69.752  0.00  0.00    +0.000 C 
ATOM      7  C   UNL     1      62.717  64.262  69.908  0.00  0.00    +0.000 A 
ATOM      8  C   UNL     1      63.351  64.287  69.381  0.00  0.00    +0.000 A 
ATOM      9  C   UNL     1      63.988  64.644  69.767  0.00  0.00    +0.000 A 
ATOM     10  C   UNL     1      63.747  64.838  70.531  0.00  0.00    +0.000 A 
ATOM     11  S   UNL     1      62.961  64.602  70.618  0.00  0.00    +0.000 S 
ATOM     12  C   UNL     1      60.891  62.990  68.114  0.00  0.00    +0.000 C 
ATOM     13  C   UNL     1      60.143  62.678  67.958  0.00  0.00    +0.000 C 
ATOM     14  C   UNL     1      59.978  62.354  67.218  0.00  0.00    +0.000 C 
ATOM     15  C   UNL     1      60.561  62.341  66.634  0.00  0.00    +0.000 A 
ATOM     16  C   UNL     1      60.396  62.017  65.893  0.00  0.00    +0.000 A 
ATOM     17  O   UNL     1      59.647  61.706  65.737  0.00  0.00    +0.000 OA
ATOM     18  C   UNL     1      60.978  62.004  65.310  0.00  0.00    +0.000 A 
ATOM     19  C   UNL     1      61.726  62.315  65.466  0.00  0.00    +0.000 A 
ATOM     20  C   UNL     1      61.891  62.640  66.206  0.00  0.00    +0.000 A 
ATOM     21  C   UNL     1      61.308  62.653  66.791  0.00  0.00    +0.000 A 
ATOM     22  C   UNL     1      61.473  62.977  67.530  0.00  0.00    +0.000 C 
ENDROOT
TORSDOF 0
ENDMDL
MODEL 3
REMARK VINA RESULT:   -10.697      2.733      5.163
REMARK INTER + INTRA:         -10.697
REMARK INTER:                 -10.697
REMARK INTRA:                   0.000
REMARK UNBOUND:                 0.000
ROOT
REMARK  Name = rotigotine
REMARK                            x       y       z     vdW  Elec       q    Type
REMARK                         _______ _______ _______ _____ _____    ______ ____
ATOM      1  C   UNL     1      63.387  64.451  69.792  0.00  0.00    +0.000 C 
ATOM      2  C   UNL     1      62.611  64.182  69.724  0.00  0.00    +0.000 C 
ATOM      3  C   UNL     1      62.344  63.865  69.010  0.00  0.00    +0.000 C 
ATOM      4  N   UNL     1      61.567  63.596  68.942  0.00  0.00    +0.000 NA
ATOM      5  C   UNL     1      61.057  63.643  69.588  0.00  0.00    +0.000 C 
ATOM      6  C   UNL     1      61.323  63.960  70.302  0.00  0.00    +0.000 C 
ATOM      7  C   UNL     1      60.811  64.006  70.948  0.00  0.00    +0.000 A 
ATOM      8  C   UNL     1      60.024  63.761  70.962  0.00  0.00    +0.000 A 
ATOM      9  C   UNL     1      59.725  63.910  71.717  0.00  0.00    +0.000 A 
ATOM     10  C   UNL     1      60.326  64.248  72.168  0.00  0.00    +0.000 A 
ATOM     11  S   UNL     1      60.998  64.307  71.693  0.00  0.00    +0.000 S 
ATOM     12  C   UNL     1      61.301  63.280  68.228  0.00  0.00    +0.000 C 
ATOM     13  C   UNL     1      61.812  63.233  67.581  0.00  0.00    +0.000 C 
ATOM     14  C   UNL     1      61.547  62.917  66.868  0.00  0.00    +0.000 C 
ATOM     15  C   UNL     1      60.769  62.647  66.800  0.00  0.00    +0.000 A 
ATOM     16  C   UNL     1      60.503  62.331  66.086  0.00  0.00    +0.000 A 
ATOM     17  O   UNL     1      61.015  62.284  65.440  0.00  0.00    +0.000 OA
ATOM     18  C   UNL     1      59.727  62.062  66.018  0.00  0.00    +0.000 A 
ATOM     19  C   UNL     1      59.215  62.109  66.664  0.00  0.00    +0.000 A 
ATOM     20  C   UNL     1      59.481  62.425  67.378  0.00  0.00    +0.000 A 
ATOM     21  C   UNL     1      60.259  62.695  67.446  0.00  0.00    +0.000 A 
ATOM     22  C   UNL     1      60.525  63.010  68.159  0.00  0.00    +0.000 C 
ENDROOT
TORSDOF 0
ENDMDL
MODEL 4
REMARK VINA RESULT:   -10.647      4.271      5.012
REMARK INTER + INTRA:         -10.647
REMARK INTER:                 -10.647
REMARK INTRA:                   0.000
REMARK UNBOUND:                 0.000
ROOT
REMARK  Name = rotigotine
REMARK                            x       y       z     vdW  Elec       q    Type
REMARK                         _______ _______ _______ _____ _____    ______ ____
ATOM      1  C   UNL     1      59.700  67.105  69.081  0.00  0.00    +0.000 C 
ATOM      2  C   UNL     1      59.686  66.541  69.683  0.00  0.00    +0.000 C 
ATOM      3  C   UNL     1      59.885  65.757  69.518  0.00  0.00    +0.000 C 
ATOM      4  N   UNL     1      59.871  65.193  70.120  0.00  0.00    +0.000 NA
ATOM      5  C   UNL     1      59.658  65.411  70.886  0.00  0.00    +0.000 C 
ATOM      6  C   UNL     1      59.459  66.196  71.051  0.00  0.00    +0.000 C 
ATOM      7  C   UNL     1      59.246  66.414  71.817  0.00  0.00    +0.000 A 
ATOM      8  C   UNL     1      59.208  65.913  72.471  0.00  0.00    +0.000 A 
ATOM      9  C   UNL     1      58.972  66.363  73.122  0.00  0.00    +0.000 A 
ATOM     10  C   UNL     1      58.866  67.141  72.870  0.00  0.00    +0.000 A 
ATOM     11  S   UNL     1      59.035  67.172  72.064  0.00  0.00    +0.000 S 
ATOM     12  C   UNL     1      60.070  64.409  69.955  0.00  0.00    +0.000 C 
ATOM     13  C   UNL     1      60.283  64.189  69.188  0.00  0.00    +0.000 C 
ATOM     14  C   UNL     1      60.481  63.407  69.024  0.00  0.00    +0.000 C 
ATOM     15  C   UNL     1      60.467  62.842  69.626  0.00  0.00    +0.000 A 
ATOM     16  C   UNL     1      60.666  62.058  69.461  0.00  0.00    +0.000 A 
ATOM     17  O   UNL     1      60.879  61.840  68.694  0.00  0.00    +0.000 OA
ATOM     18  C   UNL     1      60.652  61.495  70.062  0.00  0.00    +0.000 A 
ATOM     19  C   UNL     1      60.439  61.713  70.829  0.00  0.00    +0.000 A 
ATOM     20  C   UNL     1      60.240  62.497  70.994  0.00  0.00    +0.000 A 
ATOM     21  C   UNL     1      60.254  63.062  70.392  0.00  0.00    +0.000 A 
ATOM     22  C   UNL     1      60.056  63.844  70.556  0.00  0.00    +0.000 C 
ENDROOT
TORSDOF 0
ENDMDL
MODEL 5
REMARK VINA RESULT:   -10.589      0.916      2.227
REMARK INTER + INTRA:         -10.589
REMARK INTER:                 -10.589
REMARK INTRA:                   0.000
REMARK UNBOUND:                 0.000
ROOT
REMARK  Name = rotigotine
REMARK                            x       y       z     vdW  Elec       q    Type
REMARK                         _______ _______ _______ _____ _____    ______ ____
ATOM      1  C   UNL     1      61.348  63.963  72.430  0.00  0.00    +0.000 C 
ATOM      2  C   UNL     1      61.742  64.166  71.735  0.00  0.00    +0.000 C 
ATOM      3  C   UNL     1      62.373  64.699  71.759  0.00  0.00    +0.000 C 
ATOM      4  N   UNL     1      62.767  64.902  71.063  0.00  0.00    +0.000 NA
ATOM      5  C   UNL     1      62.532  64.574  70.344  0.00  0.00    +0.000 C 
ATOM      6  C   UNL     1      61.901  64.041  70.320  0.00  0.00    +0.000 C 
ATOM      7  C   UNL     1      61.666  63.713  69.600  0.00  0.00    +0.000 A 
ATOM      8  C   UNL     1      62.006  63.864  68.865  0.00  0.00    +0.000 A 
ATOM      9  C   UNL     1      61.599  63.419  68.301  0.00  0.00    +0.000 A 
ATOM     10  C   UNL     1      61.008  62.994  68.688  0.00  0.00    +0.000 A 
ATOM     11  S   UNL     1      61.050  63.176  69.492  0.00  0.00    +0.000 S 
ATOM     12  C   UNL     1      63.396  65.435  71.086  0.00  0.00    +0.000 C 
ATOM     13  C   UNL     1      63.632  65.764  71.806  0.00  0.00    +0.000 C 
ATOM     14  C   UNL     1      64.261  66.296  71.830  0.00  0.00    +0.000 C 
ATOM     15  C   UNL     1      64.656  66.500  71.134  0.00  0.00    +0.000 A 
ATOM     16  C   UNL     1      65.286  67.032  71.158  0.00  0.00    +0.000 A 
ATOM     17  O   UNL     1      65.521  67.360  71.877  0.00  0.00    +0.000 OA
ATOM     18  C   UNL     1      65.680  67.235  70.463  0.00  0.00    +0.000 A 
ATOM     19  C   UNL     1      65.445  66.907  69.743  0.00  0.00    +0.000 A 
ATOM     20  C   UNL     1      64.815  66.375  69.719  0.00  0.00    +0.000 A 
ATOM     21  C   UNL     1      64.420  66.171  70.415  0.00  0.00    +0.000 A 
ATOM     22  C   UNL     1      63.791  65.639  70.391  0.00  0.00    +0.000 C 
ENDROOT
TORSDOF 0
ENDMDL
MODEL 6
REMARK VINA RESULT:   -10.288      4.312      5.533
REMARK INTER + INTRA:         -10.288
REMARK INTER:                 -10.288
REMARK INTRA:                   0.000
REMARK UNBOUND:                 0.000
ROOT
REMARK  Name = rotigotine
REMARK                            x       y       z     vdW  Elec       q    Type
REMARK                         _______ _______ _______ _____ _____    ______ ____
ATOM      1  C   UNL     1      60.434  62.010  70.765  0.00  0.00    +0.000 C 
ATOM      2  C   UNL     1      60.478  62.520  70.119  0.00  0.00    +0.000 C 
ATOM      3  C   UNL     1      60.724  62.235  69.384  0.00  0.00    +0.000 C 
ATOM      4  N   UNL     1      60.768  62.746  68.738  0.00  0.00    +0.000 NA
ATOM      5  C   UNL     1      60.568  63.541  68.826  0.00  0.00    +0.000 C 
ATOM      6  C   UNL     1      60.323  63.826  69.561  0.00  0.00    +0.000 C 
ATOM      7  C   UNL     1      60.122  64.622  69.648  0.00  0.00    +0.000 A 
ATOM      8  C   UNL     1      60.140  65.194  69.055  0.00  0.00    +0.000 A 
ATOM      9  C   UNL     1      59.897  65.911  69.386  0.00  0.00    +0.000 A 
ATOM     10  C   UNL     1      59.730  65.780  70.182  0.00  0.00    +0.000 A 
ATOM     11  S   UNL     1      59.869  64.984  70.345  0.00  0.00    +0.000 S 
ATOM     12  C   UNL     1      61.013  62.461  68.003  0.00  0.00    +0.000 C 
ATOM     13  C   UNL     1      61.214  61.665  67.915  0.00  0.00    +0.000 C 
ATOM     14  C   UNL     1      61.459  61.381  67.182  0.00  0.00    +0.000 C 
ATOM     15  C   UNL     1      61.504  61.892  66.535  0.00  0.00    +0.000 A 
ATOM     16  C   UNL     1      61.749  61.607  65.800  0.00  0.00    +0.000 A 
ATOM     17  O   UNL     1      61.949  60.811  65.713  0.00  0.00    +0.000 OA
ATOM     18  C   UNL     1      61.793  62.117  65.154  0.00  0.00    +0.000 A 
ATOM     19  C   UNL     1      61.593  62.913  65.242  0.00  0.00    +0.000 A 
ATOM     20  C   UNL     1      61.348  63.198  65.976  0.00  0.00    +0.000 A 
ATOM     21  C   UNL     1      61.303  62.687  66.623  0.00  0.00    +0.000 A 
ATOM     22  C   UNL     1      61.058  62.971  67.357  0.00  0.00    +0.000 C 
ENDROOT
TORSDOF 0
ENDMDL
MODEL 7
REMARK VINA RESULT:    -9.529      2.524      4.737
REMARK INTER + INTRA:          -9.529
REMARK INTER:                  -9.529
REMARK INTRA:                   0.000
REMARK UNBOUND:                 0.000
ROOT
REMARK  Name = rotigotine
REMARK                            x       y       z     vdW  Elec       q    Type
REMARK                         _______ _______ _______ _____ _____    ______ ____
ATOM      1  C   UNL     1      61.213  67.605  71.437  0.00  0.00    +0.000 C 
ATOM      2  C   UNL     1      61.671  66.920  71.409  0.00  0.00    +0.000 C 
ATOM      3  C   UNL     1      61.305  66.180  71.390  0.00  0.00    +0.000 C 
ATOM      4  N   UNL     1      61.764  65.495  71.362  0.00  0.00    +0.000 NA
ATOM      5  C   UNL     1      62.586  65.548  71.352  0.00  0.00    +0.000 C 
ATOM      6  C   UNL     1      62.952  66.289  71.370  0.00  0.00    +0.000 C 
ATOM      7  C   UNL     1      63.775  66.342  71.360  0.00  0.00    +0.000 A 
ATOM      8  C   UNL     1      64.302  65.708  71.332  0.00  0.00    +0.000 A 
ATOM      9  C   UNL     1      65.069  66.014  71.331  0.00  0.00    +0.000 A 
ATOM     10  C   UNL     1      65.015  66.837  71.358  0.00  0.00    +0.000 A 
ATOM     11  S   UNL     1      64.215  67.039  71.376  0.00  0.00    +0.000 S 
ATOM     12  C   UNL     1      61.399  64.755  71.343  0.00  0.00    +0.000 C 
ATOM     13  C   UNL     1      60.575  64.701  71.353  0.00  0.00    +0.000 C 
ATOM     14  C   UNL     1      60.210  63.962  71.335  0.00  0.00    +0.000 C 
ATOM     15  C   UNL     1      60.668  63.276  71.306  0.00  0.00    +0.000 A 
ATOM     16  C   UNL     1      60.303  62.536  71.287  0.00  0.00    +0.000 A 
ATOM     17  O   UNL     1      59.480  62.483  71.297  0.00  0.00    +0.000 OA
ATOM     18  C   UNL     1      60.761  61.851  71.259  0.00  0.00    +0.000 A 
ATOM     19  C   UNL     1      61.585  61.905  71.249  0.00  0.00    +0.000 A 
ATOM     20  C   UNL     1      61.950  62.644  71.268  0.00  0.00    +0.000 A 
ATOM     21  C   UNL     1      61.491  63.331  71.296  0.00  0.00    +0.000 A 
ATOM     22  C   UNL     1      61.856  64.069  71.315  0.00  0.00    +0.000 C 
ENDROOT
TORSDOF 0
ENDMDL
MODEL 8
REMARK VINA RESULT:    -9.329     24.748     26.308
REMARK INTER + INTRA:          -9.329
REMARK INTER:                  -9.329
REMARK INTRA:                   0.000
REMARK UNBOUND:                 0.000
ROOT
REMARK  Name = rotigotine
REMARK                            x       y       z     vdW  Elec       q    Type
REMARK                         _______ _______ _______ _____ _____    ______ ____
ATOM      1  C   UNL     1      69.195  80.758  52.836  0.00  0.00    +0.000 C 
ATOM      2  C   UNL     1      69.948  80.739  52.503  0.00  0.00    +0.000 C 
ATOM      3  C   UNL     1      70.067  80.376  51.770  0.00  0.00    +0.000 C 
ATOM      4  N   UNL     1      70.822  80.358  51.437  0.00  0.00    +0.000 NA
ATOM      5  C   UNL     1      71.457  80.700  51.835  0.00  0.00    +0.000 C 
ATOM      6  C   UNL     1      71.339  81.063  52.568  0.00  0.00    +0.000 C 
ATOM      7  C   UNL     1      71.975  81.405  52.966  0.00  0.00    +0.000 A 
ATOM      8  C   UNL     1      72.756  81.429  52.702  0.00  0.00    +0.000 A 
ATOM      9  C   UNL     1      73.205  81.823  53.271  0.00  0.00    +0.000 A 
ATOM     10  C   UNL     1      72.702  82.043  53.886  0.00  0.00    +0.000 A 
ATOM     11  S   UNL     1      71.941  81.785  53.697  0.00  0.00    +0.000 S 
ATOM     12  C   UNL     1      70.940  79.996  50.705  0.00  0.00    +0.000 C 
ATOM     13  C   UNL     1      70.304  79.653  50.306  0.00  0.00    +0.000 C 
ATOM     14  C   UNL     1      70.422  79.291  49.575  0.00  0.00    +0.000 C 
ATOM     15  C   UNL     1      71.177  79.272  49.241  0.00  0.00    +0.000 A 
ATOM     16  C   UNL     1      71.295  78.910  48.509  0.00  0.00    +0.000 A 
ATOM     17  O   UNL     1      70.659  78.568  48.112  0.00  0.00    +0.000 OA
ATOM     18  C   UNL     1      72.049  78.892  48.176  0.00  0.00    +0.000 A 
ATOM     19  C   UNL     1      72.686  79.234  48.574  0.00  0.00    +0.000 A 
ATOM     20  C   UNL     1      72.567  79.596  49.306  0.00  0.00    +0.000 A 
ATOM     21  C   UNL     1      71.812  79.615  49.640  0.00  0.00    +0.000 A 
ATOM     22  C   UNL     1      71.694  79.977  50.371  0.00  0.00    +0.000 C 
ENDROOT
TORSDOF 0
ENDMDL
