MODEL 1
REMARK VINA RESULT:   -11.691      0.000      0.000
REMARK INTER + INTRA:         -11.691
REMARK INTER:                 -11.691
REMARK INTRA:                   0.000
REMARK UNBOUND:                 0.000
ROOT
REMARK  Name = rotraxate
REMARK                            x       y       z     vdW  Elec       q    Type
REMARK                         _______ _______ _______ _____ _____    ______ ____
ATOM      1  N   UNL     1      62.375  61.271  63.119  0.00  0.00    +0.000 NA
ATOM      2  C   UNL     1      62.564  61.657  63.823  0.00  0.00    +0.000 C 
ATOM      3  C   UNL     1      61.991  61.746  64.411  0.00  0.00    +0.000 C 
ATOM      4  C   UNL     1      61.230  61.449  64.293  0.00  0.00    +0.000 C 
ATOM      5  C   UNL     1      60.658  61.539  64.880  0.00  0.00    +0.000 C 
ATOM      6  C   UNL     1      60.846  61.925  65.586  0.00  0.00    +0.000 C 
ATOM      7  C   UNL     1      61.607  62.221  65.702  0.00  0.00    +0.000 C 
ATOM      8  C   UNL     1      62.180  62.132  65.115  0.00  0.00    +0.000 C 
ATOM      9  C   UNL     1      60.274  62.014  66.172  0.00  0.00    +0.000 C 
ATOM     10  O   UNL     1      59.512  61.718  66.055  0.00  0.00    +0.000 OA
ATOM     11  C   UNL     1      60.462  62.400  66.877  0.00  0.00    +0.000 A 
ATOM     12  C   UNL     1      59.889  62.489  67.464  0.00  0.00    +0.000 A 
ATOM     13  C   UNL     1      60.078  62.875  68.168  0.00  0.00    +0.000 A 
ATOM     14  C   UNL     1      60.838  63.171  68.286  0.00  0.00    +0.000 A 
ATOM     15  C   UNL     1      61.027  63.557  68.990  0.00  0.00    +0.000 C 
ATOM     16  C   UNL     1      60.454  63.647  69.578  0.00  0.00    +0.000 C 
ATOM     17  C   UNL     1      60.643  64.032  70.282  0.00  0.00    +0.000 C 
ATOM     18  O   UNL     1      60.070  64.122  70.869  0.00  0.00    +0.000 OA
ATOM     19  O   UNL     1      61.403  64.329  70.399  0.00  0.00    +0.000 OA
ATOM     20  C   UNL     1      61.411  63.082  67.698  0.00  0.00    +0.000 A 
ATOM     21  C   UNL     1      61.223  62.696  66.993  0.00  0.00    +0.000 A 
ENDROOT
TORSDOF 0
ENDMDL
MODEL 2
REMARK VINA RESULT:   -10.852      2.720      5.449
REMARK INTER + INTRA:         -10.852
REMARK INTER:                 -10.852
REMARK INTRA:                   0.000
REMARK UNBOUND:                 0.000
ROOT
REMARK  Name = rotraxate
REMARK                            x       y       z     vdW  Elec       q    Type
REMARK                         _______ _______ _______ _____ _____    ______ ____
ATOM      1  N   UNL     1      60.879  64.626  73.124  0.00  0.00    +0.000 NA
ATOM      2  C   UNL     1      61.090  64.719  72.332  0.00  0.00    +0.000 C 
ATOM      3  C   UNL     1      60.935  64.116  71.790  0.00  0.00    +0.000 C 
ATOM      4  C   UNL     1      60.569  63.420  72.042  0.00  0.00    +0.000 C 
ATOM      5  C   UNL     1      60.415  62.817  71.501  0.00  0.00    +0.000 C 
ATOM      6  C   UNL     1      60.626  62.909  70.708  0.00  0.00    +0.000 C 
ATOM      7  C   UNL     1      60.991  63.605  70.457  0.00  0.00    +0.000 C 
ATOM      8  C   UNL     1      61.146  64.208  70.999  0.00  0.00    +0.000 C 
ATOM      9  C   UNL     1      60.472  62.307  70.167  0.00  0.00    +0.000 C 
ATOM     10  O   UNL     1      60.106  61.610  70.418  0.00  0.00    +0.000 OA
ATOM     11  C   UNL     1      60.682  62.399  69.375  0.00  0.00    +0.000 A 
ATOM     12  C   UNL     1      60.528  61.796  68.834  0.00  0.00    +0.000 A 
ATOM     13  C   UNL     1      60.738  61.888  68.042  0.00  0.00    +0.000 A 
ATOM     14  C   UNL     1      61.104  62.584  67.790  0.00  0.00    +0.000 A 
ATOM     15  C   UNL     1      61.315  62.678  66.998  0.00  0.00    +0.000 C 
ATOM     16  C   UNL     1      61.160  62.074  66.456  0.00  0.00    +0.000 C 
ATOM     17  C   UNL     1      61.371  62.166  65.665  0.00  0.00    +0.000 C 
ATOM     18  O   UNL     1      61.216  61.563  65.123  0.00  0.00    +0.000 OA
ATOM     19  O   UNL     1      61.736  62.862  65.414  0.00  0.00    +0.000 OA
ATOM     20  C   UNL     1      61.258  63.187  68.332  0.00  0.00    +0.000 A 
ATOM     21  C   UNL     1      61.047  63.095  69.125  0.00  0.00    +0.000 A 
ENDROOT
TORSDOF 0
ENDMDL
MODEL 3
REMARK VINA RESULT:   -10.840      2.300      4.880
REMARK INTER + INTRA:         -10.840
REMARK INTER:                 -10.840
REMARK INTRA:                   0.000
REMARK UNBOUND:                 0.000
ROOT
REMARK  Name = rotraxate
REMARK                            x       y       z     vdW  Elec       q    Type
REMARK                         _______ _______ _______ _____ _____    ______ ____
ATOM      1  N   UNL     1      61.609  64.473  70.682  0.00  0.00    +0.000 NA
ATOM      2  C   UNL     1      61.984  64.334  69.960  0.00  0.00    +0.000 C 
ATOM      3  C   UNL     1      61.609  63.879  69.382  0.00  0.00    +0.000 C 
ATOM      4  C   UNL     1      60.861  63.563  69.527  0.00  0.00    +0.000 C 
ATOM      5  C   UNL     1      60.487  63.108  68.949  0.00  0.00    +0.000 C 
ATOM      6  C   UNL     1      60.861  62.968  68.227  0.00  0.00    +0.000 C 
ATOM      7  C   UNL     1      61.609  63.285  68.083  0.00  0.00    +0.000 C 
ATOM      8  C   UNL     1      61.983  63.740  68.660  0.00  0.00    +0.000 C 
ATOM      9  C   UNL     1      60.487  62.514  67.650  0.00  0.00    +0.000 C 
ATOM     10  O   UNL     1      59.738  62.197  67.794  0.00  0.00    +0.000 OA
ATOM     11  C   UNL     1      60.860  62.375  66.927  0.00  0.00    +0.000 A 
ATOM     12  C   UNL     1      60.486  61.920  66.350  0.00  0.00    +0.000 A 
ATOM     13  C   UNL     1      60.860  61.781  65.628  0.00  0.00    +0.000 A 
ATOM     14  C   UNL     1      61.608  62.097  65.483  0.00  0.00    +0.000 A 
ATOM     15  C   UNL     1      61.983  61.959  64.761  0.00  0.00    +0.000 C 
ATOM     16  C   UNL     1      61.609  61.503  64.183  0.00  0.00    +0.000 C 
ATOM     17  C   UNL     1      61.982  61.365  63.461  0.00  0.00    +0.000 C 
ATOM     18  O   UNL     1      61.608  60.909  62.884  0.00  0.00    +0.000 OA
ATOM     19  O   UNL     1      62.730  61.680  63.317  0.00  0.00    +0.000 OA
ATOM     20  C   UNL     1      61.983  62.552  66.061  0.00  0.00    +0.000 A 
ATOM     21  C   UNL     1      61.608  62.691  66.784  0.00  0.00    +0.000 A 
ENDROOT
TORSDOF 0
ENDMDL
MODEL 4
REMARK VINA RESULT:   -10.426      4.613      6.346
REMARK INTER + INTRA:         -10.426
REMARK INTER:                 -10.426
REMARK INTRA:                   0.000
REMARK UNBOUND:                 0.000
ROOT
REMARK  Name = rotraxate
REMARK                            x       y       z     vdW  Elec       q    Type
REMARK                         _______ _______ _______ _____ _____    ______ ____
ATOM      1  N   UNL     1      66.186  67.860  70.159  0.00  0.00    +0.000 NA
ATOM      2  C   UNL     1      65.773  67.218  69.846  0.00  0.00    +0.000 C 
ATOM      3  C   UNL     1      65.183  66.850  70.291  0.00  0.00    +0.000 C 
ATOM      4  C   UNL     1      65.006  67.126  71.049  0.00  0.00    +0.000 C 
ATOM      5  C   UNL     1      64.417  66.759  71.494  0.00  0.00    +0.000 C 
ATOM      6  C   UNL     1      64.003  66.116  71.181  0.00  0.00    +0.000 C 
ATOM      7  C   UNL     1      64.181  65.842  70.424  0.00  0.00    +0.000 C 
ATOM      8  C   UNL     1      64.770  66.209  69.979  0.00  0.00    +0.000 C 
ATOM      9  C   UNL     1      63.414  65.750  71.626  0.00  0.00    +0.000 C 
ATOM     10  O   UNL     1      63.237  66.025  72.384  0.00  0.00    +0.000 OA
ATOM     11  C   UNL     1      63.001  65.107  71.314  0.00  0.00    +0.000 A 
ATOM     12  C   UNL     1      62.411  64.740  71.759  0.00  0.00    +0.000 A 
ATOM     13  C   UNL     1      61.999  64.099  71.447  0.00  0.00    +0.000 A 
ATOM     14  C   UNL     1      62.175  63.823  70.689  0.00  0.00    +0.000 A 
ATOM     15  C   UNL     1      61.763  63.180  70.376  0.00  0.00    +0.000 C 
ATOM     16  C   UNL     1      61.172  62.813  70.822  0.00  0.00    +0.000 C 
ATOM     17  C   UNL     1      60.760  62.171  70.509  0.00  0.00    +0.000 C 
ATOM     18  O   UNL     1      60.170  61.804  70.954  0.00  0.00    +0.000 OA
ATOM     19  O   UNL     1      60.936  61.896  69.753  0.00  0.00    +0.000 OA
ATOM     20  C   UNL     1      62.765  64.190  70.244  0.00  0.00    +0.000 A 
ATOM     21  C   UNL     1      63.178  64.833  70.557  0.00  0.00    +0.000 A 
ENDROOT
TORSDOF 0
ENDMDL
MODEL 5
REMARK VINA RESULT:   -10.311      4.744      6.262
REMARK INTER + INTRA:         -10.311
REMARK INTER:                 -10.311
REMARK INTRA:                   0.000
REMARK UNBOUND:                 0.000
ROOT
REMARK  Name = rotraxate
REMARK                            x       y       z     vdW  Elec       q    Type
REMARK                         _______ _______ _______ _____ _____    ______ ____
ATOM      1  N   UNL     1      60.122  61.598  70.979  0.00  0.00    +0.000 NA
ATOM      2  C   UNL     1      60.748  61.990  70.610  0.00  0.00    +0.000 C 
ATOM      3  C   UNL     1      61.086  62.654  70.967  0.00  0.00    +0.000 C 
ATOM      4  C   UNL     1      60.798  62.925  71.691  0.00  0.00    +0.000 C 
ATOM      5  C   UNL     1      61.135  63.588  72.047  0.00  0.00    +0.000 C 
ATOM      6  C   UNL     1      61.761  63.981  71.678  0.00  0.00    +0.000 C 
ATOM      7  C   UNL     1      62.048  63.710  70.954  0.00  0.00    +0.000 C 
ATOM      8  C   UNL     1      61.711  63.046  70.598  0.00  0.00    +0.000 C 
ATOM      9  C   UNL     1      62.098  64.643  72.034  0.00  0.00    +0.000 C 
ATOM     10  O   UNL     1      61.811  64.915  72.759  0.00  0.00    +0.000 OA
ATOM     11  C   UNL     1      62.724  65.036  71.666  0.00  0.00    +0.000 A 
ATOM     12  C   UNL     1      63.061  65.699  72.022  0.00  0.00    +0.000 A 
ATOM     13  C   UNL     1      63.686  66.091  71.654  0.00  0.00    +0.000 A 
ATOM     14  C   UNL     1      63.974  65.821  70.929  0.00  0.00    +0.000 A 
ATOM     15  C   UNL     1      64.600  66.213  70.560  0.00  0.00    +0.000 C 
ATOM     16  C   UNL     1      64.938  66.877  70.916  0.00  0.00    +0.000 C 
ATOM     17  C   UNL     1      65.562  67.269  70.548  0.00  0.00    +0.000 C 
ATOM     18  O   UNL     1      65.900  67.932  70.904  0.00  0.00    +0.000 OA
ATOM     19  O   UNL     1      65.850  66.998  69.824  0.00  0.00    +0.000 OA
ATOM     20  C   UNL     1      63.636  65.158  70.573  0.00  0.00    +0.000 A 
ATOM     21  C   UNL     1      63.011  64.765  70.942  0.00  0.00    +0.000 A 
ENDROOT
TORSDOF 0
ENDMDL
MODEL 6
REMARK VINA RESULT:    -9.991      2.736      5.140
REMARK INTER + INTRA:          -9.991
REMARK INTER:                  -9.991
REMARK INTRA:                   0.000
REMARK UNBOUND:                 0.000
ROOT
REMARK  Name = rotraxate
REMARK                            x       y       z     vdW  Elec       q    Type
REMARK                         _______ _______ _______ _____ _____    ______ ____
ATOM      1  N   UNL     1      64.957  65.585  71.210  0.00  0.00    +0.000 NA
ATOM      2  C   UNL     1      64.712  65.258  70.493  0.00  0.00    +0.000 C 
ATOM      3  C   UNL     1      63.940  64.974  70.412  0.00  0.00    +0.000 C 
ATOM      4  C   UNL     1      63.416  65.018  71.048  0.00  0.00    +0.000 C 
ATOM      5  C   UNL     1      62.645  64.735  70.967  0.00  0.00    +0.000 C 
ATOM      6  C   UNL     1      62.399  64.408  70.250  0.00  0.00    +0.000 C 
ATOM      7  C   UNL     1      62.923  64.365  69.615  0.00  0.00    +0.000 C 
ATOM      8  C   UNL     1      63.694  64.648  69.696  0.00  0.00    +0.000 C 
ATOM      9  C   UNL     1      61.629  64.125  70.169  0.00  0.00    +0.000 C 
ATOM     10  O   UNL     1      61.104  64.168  70.805  0.00  0.00    +0.000 OA
ATOM     11  C   UNL     1      61.382  63.798  69.453  0.00  0.00    +0.000 A 
ATOM     12  C   UNL     1      60.611  63.515  69.373  0.00  0.00    +0.000 A 
ATOM     13  C   UNL     1      60.365  63.188  68.657  0.00  0.00    +0.000 A 
ATOM     14  C   UNL     1      60.889  63.145  68.021  0.00  0.00    +0.000 A 
ATOM     15  C   UNL     1      60.644  62.818  67.304  0.00  0.00    +0.000 C 
ATOM     16  C   UNL     1      59.872  62.534  67.223  0.00  0.00    +0.000 C 
ATOM     17  C   UNL     1      59.626  62.208  66.507  0.00  0.00    +0.000 C 
ATOM     18  O   UNL     1      58.855  61.925  66.426  0.00  0.00    +0.000 OA
ATOM     19  O   UNL     1      60.150  62.164  65.872  0.00  0.00    +0.000 OA
ATOM     20  C   UNL     1      61.660  63.428  68.102  0.00  0.00    +0.000 A 
ATOM     21  C   UNL     1      61.907  63.755  68.818  0.00  0.00    +0.000 A 
ENDROOT
TORSDOF 0
ENDMDL
MODEL 7
REMARK VINA RESULT:    -9.899      2.830      4.332
REMARK INTER + INTRA:          -9.899
REMARK INTER:                  -9.899
REMARK INTRA:                   0.000
REMARK UNBOUND:                 0.000
ROOT
REMARK  Name = rotraxate
REMARK                            x       y       z     vdW  Elec       q    Type
REMARK                         _______ _______ _______ _____ _____    ______ ____
ATOM      1  N   UNL     1      59.703  62.040  67.152  0.00  0.00    +0.000 NA
ATOM      2  C   UNL     1      60.342  62.562  67.188  0.00  0.00    +0.000 C 
ATOM      3  C   UNL     1      60.677  62.753  67.918  0.00  0.00    +0.000 C 
ATOM      4  C   UNL     1      60.374  62.422  68.610  0.00  0.00    +0.000 C 
ATOM      5  C   UNL     1      60.710  62.613  69.339  0.00  0.00    +0.000 C 
ATOM      6  C   UNL     1      61.349  63.135  69.376  0.00  0.00    +0.000 C 
ATOM      7  C   UNL     1      61.651  63.465  68.683  0.00  0.00    +0.000 C 
ATOM      8  C   UNL     1      61.315  63.274  67.954  0.00  0.00    +0.000 C 
ATOM      9  C   UNL     1      61.684  63.326  70.104  0.00  0.00    +0.000 C 
ATOM     10  O   UNL     1      61.381  62.995  70.798  0.00  0.00    +0.000 OA
ATOM     11  C   UNL     1      62.322  63.847  70.141  0.00  0.00    +0.000 A 
ATOM     12  C   UNL     1      62.657  64.038  70.871  0.00  0.00    +0.000 A 
ATOM     13  C   UNL     1      63.295  64.559  70.907  0.00  0.00    +0.000 A 
ATOM     14  C   UNL     1      63.598  64.890  70.214  0.00  0.00    +0.000 A 
ATOM     15  C   UNL     1      64.237  65.412  70.250  0.00  0.00    +0.000 C 
ATOM     16  C   UNL     1      64.573  65.603  70.980  0.00  0.00    +0.000 C 
ATOM     17  C   UNL     1      65.210  66.124  71.017  0.00  0.00    +0.000 C 
ATOM     18  O   UNL     1      65.546  66.315  71.746  0.00  0.00    +0.000 OA
ATOM     19  O   UNL     1      65.513  66.455  70.325  0.00  0.00    +0.000 OA
ATOM     20  C   UNL     1      63.263  64.699  69.485  0.00  0.00    +0.000 A 
ATOM     21  C   UNL     1      62.624  64.177  69.449  0.00  0.00    +0.000 A 
ENDROOT
TORSDOF 0
ENDMDL
MODEL 8
REMARK VINA RESULT:    -9.333      4.437      6.417
REMARK INTER + INTRA:          -9.333
REMARK INTER:                  -9.333
REMARK INTRA:                   0.000
REMARK UNBOUND:                 0.000
ROOT
REMARK  Name = rotraxate
REMARK                            x       y       z     vdW  Elec       q    Type
REMARK                         _______ _______ _______ _____ _____    ______ ____
ATOM      1  N   UNL     1      59.751  64.605  68.968  0.00  0.00    +0.000 NA
ATOM      2  C   UNL     1      60.466  64.955  68.749  0.00  0.00    +0.000 C 
ATOM      3  C   UNL     1      61.042  65.107  69.320  0.00  0.00    +0.000 C 
ATOM      4  C   UNL     1      60.903  64.910  70.109  0.00  0.00    +0.000 C 
ATOM      5  C   UNL     1      61.479  65.063  70.680  0.00  0.00    +0.000 C 
ATOM      6  C   UNL     1      62.194  65.412  70.461  0.00  0.00    +0.000 C 
ATOM      7  C   UNL     1      62.332  65.609  69.672  0.00  0.00    +0.000 C 
ATOM      8  C   UNL     1      61.756  65.456  69.102  0.00  0.00    +0.000 C 
ATOM      9  C   UNL     1      62.769  65.565  71.031  0.00  0.00    +0.000 C 
ATOM     10  O   UNL     1      62.630  65.368  71.821  0.00  0.00    +0.000 OA
ATOM     11  C   UNL     1      63.484  65.914  70.814  0.00  0.00    +0.000 A 
ATOM     12  C   UNL     1      64.060  66.066  71.384  0.00  0.00    +0.000 A 
ATOM     13  C   UNL     1      64.774  66.415  71.166  0.00  0.00    +0.000 A 
ATOM     14  C   UNL     1      64.914  66.612  70.377  0.00  0.00    +0.000 A 
ATOM     15  C   UNL     1      65.629  66.962  70.158  0.00  0.00    +0.000 C 
ATOM     16  C   UNL     1      66.205  67.115  70.729  0.00  0.00    +0.000 C 
ATOM     17  C   UNL     1      66.919  67.464  70.511  0.00  0.00    +0.000 C 
ATOM     18  O   UNL     1      67.495  67.616  71.082  0.00  0.00    +0.000 OA
ATOM     19  O   UNL     1      67.058  67.660  69.723  0.00  0.00    +0.000 OA
ATOM     20  C   UNL     1      64.338  66.460  69.806  0.00  0.00    +0.000 A 
ATOM     21  C   UNL     1      63.622  66.110  70.025  0.00  0.00    +0.000 A 
ENDROOT
TORSDOF 0
ENDMDL
MODEL 9
REMARK VINA RESULT:    -9.231      4.888      5.874
REMARK INTER + INTRA:          -9.231
REMARK INTER:                  -9.231
REMARK INTRA:                   0.000
REMARK UNBOUND:                 0.000
ROOT
REMARK  Name = rotraxate
REMARK                            x       y       z     vdW  Elec       q    Type
REMARK                         _______ _______ _______ _____ _____    ______ ____
ATOM      1  N   UNL     1      62.350  60.191  72.441  0.00  0.00    +0.000 NA
ATOM      2  C   UNL     1      62.062  60.651  71.820  0.00  0.00    +0.000 C 
ATOM      3  C   UNL     1      61.815  61.426  71.961  0.00  0.00    +0.000 C 
ATOM      4  C   UNL     1      61.858  61.740  72.723  0.00  0.00    +0.000 C 
ATOM      5  C   UNL     1      61.611  62.515  72.864  0.00  0.00    +0.000 C 
ATOM      6  C   UNL     1      61.323  62.976  72.242  0.00  0.00    +0.000 C 
ATOM      7  C   UNL     1      61.281  62.661  71.481  0.00  0.00    +0.000 C 
ATOM      8  C   UNL     1      61.527  61.886  71.340  0.00  0.00    +0.000 C 
ATOM      9  C   UNL     1      61.077  63.749  72.383  0.00  0.00    +0.000 C 
ATOM     10  O   UNL     1      61.119  64.064  73.145  0.00  0.00    +0.000 OA
ATOM     11  C   UNL     1      60.789  64.210  71.763  0.00  0.00    +0.000 A 
ATOM     12  C   UNL     1      60.542  64.985  71.904  0.00  0.00    +0.000 A 
ATOM     13  C   UNL     1      60.254  65.445  71.283  0.00  0.00    +0.000 A 
ATOM     14  C   UNL     1      60.212  65.132  70.521  0.00  0.00    +0.000 A 
ATOM     15  C   UNL     1      59.924  65.592  69.900  0.00  0.00    +0.000 C 
ATOM     16  C   UNL     1      59.677  66.367  70.041  0.00  0.00    +0.000 C 
ATOM     17  C   UNL     1      59.389  66.827  69.420  0.00  0.00    +0.000 C 
ATOM     18  O   UNL     1      59.143  67.602  69.561  0.00  0.00    +0.000 OA
ATOM     19  O   UNL     1      59.347  66.514  68.659  0.00  0.00    +0.000 OA
ATOM     20  C   UNL     1      60.458  64.357  70.380  0.00  0.00    +0.000 A 
ATOM     21  C   UNL     1      60.747  63.896  71.002  0.00  0.00    +0.000 A 
ENDROOT
TORSDOF 0
ENDMDL
