MODEL 1
REMARK VINA RESULT:   -13.124      0.000      0.000
REMARK INTER + INTRA:         -13.124
REMARK INTER:                 -13.124
REMARK INTRA:                   0.000
REMARK UNBOUND:                 0.000
ROOT
REMARK  Name = roxadustat
REMARK                            x       y       z     vdW  Elec       q    Type
REMARK                         _______ _______ _______ _____ _____    ______ ____
ATOM      1  C   UNK A   0      60.500  61.882  69.713  0.00  0.00    +0.000 C 
ATOM      2  C   UNK A   0      60.500  62.649  69.410  0.00  0.00    +0.000 A 
ATOM      3  C   UNK A   1      60.750  62.786  68.635  0.00  0.00    +0.000 A 
ATOM      4  C   UNK A   1      60.999  62.156  68.164  0.00  0.00    +0.000 A 
ATOM      5  C   UNK A   1      61.249  62.293  67.390  0.00  0.00    +0.000 A 
ATOM      6  O   UNK A   1      61.497  61.664  66.919  0.00  0.00    +0.000 OA
ATOM      7  C   UNK A   1      61.747  61.801  66.145  0.00  0.00    +0.000 A 
ATOM      8  C   UNK A   1      61.996  61.172  65.674  0.00  0.00    +0.000 A 
ATOM      9  C   UNK A   1      62.246  61.309  64.899  0.00  0.00    +0.000 A 
ATOM     10  C   UNK A   1      62.246  62.076  64.596  0.00  0.00    +0.000 A 
ATOM     11  C   UNK A   1      61.997  62.706  65.068  0.00  0.00    +0.000 A 
ATOM     12  C   UNK A   1      61.748  62.568  65.842  0.00  0.00    +0.000 A 
ATOM     13  C   UNK A   1      61.249  63.061  67.087  0.00  0.00    +0.000 A 
ATOM     14  C   UNK A   1      61.000  63.691  67.557  0.00  0.00    +0.000 A 
ATOM     15  C   UNK A   1      60.751  63.553  68.332  0.00  0.00    +0.000 A 
ATOM     16  C   UNK A   1      60.501  64.184  68.804  0.00  0.00    +0.000 A 
ATOM     17  O   UNK A   1      60.502  64.950  68.501  0.00  0.00    +0.000 OA
ATOM     18  C   UNK A   1      60.252  64.045  69.578  0.00  0.00    +0.000 A 
ATOM     19  N   UNK A   1      60.251  63.278  69.881  0.00  0.00    +0.000 NA
ATOM     20  C   UNK A   1      60.003  64.676  70.048  0.00  0.00    +0.000 C 
ATOM     21  O   UNK A   1      60.004  65.442  69.746  0.00  0.00    +0.000 OA
ATOM     22  N   GLY A   2      59.753  64.538  70.823  0.00  0.00    +0.000 NA
ATOM     23  CA  GLY A   2      59.505  65.168  71.294  0.00  0.00    +0.000 C 
ATOM     24  C   GLY A   2      59.255  65.030  72.069  0.00  0.00    +0.000 C 
ATOM     25  O   GLY A   2      59.006  65.660  72.539  0.00  0.00    +0.000 OA
ATOM     26  OXT GLY A   2      59.254  64.263  72.372  0.00  0.00    +0.000 OA
ENDROOT
TORSDOF 0
ENDMDL
MODEL 2
REMARK VINA RESULT:   -11.643      3.945      5.375
REMARK INTER + INTRA:         -11.643
REMARK INTER:                 -11.643
REMARK INTRA:                   0.000
REMARK UNBOUND:                 0.000
ROOT
REMARK  Name = roxadustat
REMARK                            x       y       z     vdW  Elec       q    Type
REMARK                         _______ _______ _______ _____ _____    ______ ____
ATOM      1  C   UNK A   0      62.936  65.980  72.082  0.00  0.00    +0.000 C 
ATOM      2  C   UNK A   0      63.222  65.655  71.380  0.00  0.00    +0.000 A 
ATOM      3  C   UNK A   1      62.872  64.977  71.067  0.00  0.00    +0.000 A 
ATOM      4  C   UNK A   1      62.235  64.623  71.455  0.00  0.00    +0.000 A 
ATOM      5  C   UNK A   1      61.885  63.946  71.141  0.00  0.00    +0.000 A 
ATOM      6  O   UNK A   1      61.249  63.593  71.529  0.00  0.00    +0.000 OA
ATOM      7  C   UNK A   1      60.898  62.915  71.216  0.00  0.00    +0.000 A 
ATOM      8  C   UNK A   1      60.262  62.563  71.604  0.00  0.00    +0.000 A 
ATOM      9  C   UNK A   1      59.911  61.885  71.290  0.00  0.00    +0.000 A 
ATOM     10  C   UNK A   1      60.197  61.560  70.588  0.00  0.00    +0.000 A 
ATOM     11  C   UNK A   1      60.834  61.913  70.199  0.00  0.00    +0.000 A 
ATOM     12  C   UNK A   1      61.184  62.590  70.513  0.00  0.00    +0.000 A 
ATOM     13  C   UNK A   1      62.171  63.621  70.439  0.00  0.00    +0.000 A 
ATOM     14  C   UNK A   1      62.807  63.974  70.050  0.00  0.00    +0.000 A 
ATOM     15  C   UNK A   1      63.158  64.652  70.364  0.00  0.00    +0.000 A 
ATOM     16  C   UNK A   1      63.795  65.005  69.975  0.00  0.00    +0.000 A 
ATOM     17  O   UNK A   1      64.081  64.681  69.274  0.00  0.00    +0.000 OA
ATOM     18  C   UNK A   1      64.145  65.683  70.290  0.00  0.00    +0.000 A 
ATOM     19  N   UNK A   1      63.858  66.008  70.992  0.00  0.00    +0.000 NA
ATOM     20  C   UNK A   1      64.781  66.035  69.901  0.00  0.00    +0.000 C 
ATOM     21  O   UNK A   1      65.067  65.711  69.199  0.00  0.00    +0.000 OA
ATOM     22  N   GLY A   2      65.131  66.714  70.215  0.00  0.00    +0.000 NA
ATOM     23  CA  GLY A   2      65.768  67.066  69.826  0.00  0.00    +0.000 C 
ATOM     24  C   GLY A   2      66.118  67.744  70.141  0.00  0.00    +0.000 C 
ATOM     25  O   GLY A   2      66.755  68.097  69.752  0.00  0.00    +0.000 OA
ATOM     26  OXT GLY A   2      65.832  68.069  70.843  0.00  0.00    +0.000 OA
ENDROOT
TORSDOF 0
ENDMDL
MODEL 3
REMARK VINA RESULT:   -11.566      1.229      5.405
REMARK INTER + INTRA:         -11.566
REMARK INTER:                 -11.566
REMARK INTRA:                   0.000
REMARK UNBOUND:                 0.000
ROOT
REMARK  Name = roxadustat
REMARK                            x       y       z     vdW  Elec       q    Type
REMARK                         _______ _______ _______ _____ _____    ______ ____
ATOM      1  C   UNK A   0      60.819  61.624  69.654  0.00  0.00    +0.000 C 
ATOM      2  C   UNK A   0      60.791  62.292  69.171  0.00  0.00    +0.000 A 
ATOM      3  C   UNK A   1      60.532  63.012  69.479  0.00  0.00    +0.000 A 
ATOM      4  C   UNK A   1      60.300  63.066  70.269  0.00  0.00    +0.000 A 
ATOM      5  C   UNK A   1      60.041  63.786  70.576  0.00  0.00    +0.000 A 
ATOM      6  O   UNK A   1      59.811  63.838  71.365  0.00  0.00    +0.000 OA
ATOM      7  C   UNK A   1      59.551  64.559  71.673  0.00  0.00    +0.000 A 
ATOM      8  C   UNK A   1      59.320  64.612  72.462  0.00  0.00    +0.000 A 
ATOM      9  C   UNK A   1      59.061  65.332  72.770  0.00  0.00    +0.000 A 
ATOM     10  C   UNK A   1      59.033  66.000  72.287  0.00  0.00    +0.000 A 
ATOM     11  C   UNK A   1      59.264  65.948  71.496  0.00  0.00    +0.000 A 
ATOM     12  C   UNK A   1      59.523  65.227  71.190  0.00  0.00    +0.000 A 
ATOM     13  C   UNK A   1      60.013  64.453  70.092  0.00  0.00    +0.000 A 
ATOM     14  C   UNK A   1      60.244  64.401  69.302  0.00  0.00    +0.000 A 
ATOM     15  C   UNK A   1      60.503  63.680  68.995  0.00  0.00    +0.000 A 
ATOM     16  C   UNK A   1      60.735  63.628  68.204  0.00  0.00    +0.000 A 
ATOM     17  O   UNK A   1      60.707  64.295  67.721  0.00  0.00    +0.000 OA
ATOM     18  C   UNK A   1      60.994  62.907  67.898  0.00  0.00    +0.000 A 
ATOM     19  N   UNK A   1      61.022  62.239  68.382  0.00  0.00    +0.000 NA
ATOM     20  C   UNK A   1      61.224  62.855  67.108  0.00  0.00    +0.000 C 
ATOM     21  O   UNK A   1      61.196  63.522  66.625  0.00  0.00    +0.000 OA
ATOM     22  N   GLY A   2      61.484  62.133  66.801  0.00  0.00    +0.000 NA
ATOM     23  CA  GLY A   2      61.715  62.081  66.011  0.00  0.00    +0.000 C 
ATOM     24  C   GLY A   2      61.974  61.360  65.704  0.00  0.00    +0.000 C 
ATOM     25  O   GLY A   2      62.205  61.308  64.914  0.00  0.00    +0.000 OA
ATOM     26  OXT GLY A   2      62.002  60.692  66.187  0.00  0.00    +0.000 OA
ENDROOT
TORSDOF 0
ENDMDL
MODEL 4
REMARK VINA RESULT:   -11.538      4.059      5.291
REMARK INTER + INTRA:         -11.538
REMARK INTER:                 -11.538
REMARK INTRA:                   0.000
REMARK UNBOUND:                 0.000
ROOT
REMARK  Name = roxadustat
REMARK                            x       y       z     vdW  Elec       q    Type
REMARK                         _______ _______ _______ _____ _____    ______ ____
ATOM      1  C   UNK A   0      62.777  64.320  68.632  0.00  0.00    +0.000 C 
ATOM      2  C   UNK A   0      62.770  64.303  69.456  0.00  0.00    +0.000 A 
ATOM      3  C   UNK A   1      63.267  64.805  69.883  0.00  0.00    +0.000 A 
ATOM      4  C   UNK A   1      63.771  65.323  69.486  0.00  0.00    +0.000 A 
ATOM      5  C   UNK A   1      64.268  65.824  69.912  0.00  0.00    +0.000 A 
ATOM      6  O   UNK A   1      64.772  66.342  69.515  0.00  0.00    +0.000 OA
ATOM      7  C   UNK A   1      65.269  66.844  69.942  0.00  0.00    +0.000 A 
ATOM      8  C   UNK A   1      65.773  67.361  69.544  0.00  0.00    +0.000 A 
ATOM      9  C   UNK A   1      66.270  67.863  69.971  0.00  0.00    +0.000 A 
ATOM     10  C   UNK A   1      66.263  67.846  70.796  0.00  0.00    +0.000 A 
ATOM     11  C   UNK A   1      65.758  67.328  71.194  0.00  0.00    +0.000 A 
ATOM     12  C   UNK A   1      65.262  66.827  70.766  0.00  0.00    +0.000 A 
ATOM     13  C   UNK A   1      64.261  65.808  70.737  0.00  0.00    +0.000 A 
ATOM     14  C   UNK A   1      63.757  65.290  71.135  0.00  0.00    +0.000 A 
ATOM     15  C   UNK A   1      63.260  64.788  70.708  0.00  0.00    +0.000 A 
ATOM     16  C   UNK A   1      62.755  64.270  71.106  0.00  0.00    +0.000 A 
ATOM     17  O   UNK A   1      62.748  64.253  71.930  0.00  0.00    +0.000 OA
ATOM     18  C   UNK A   1      62.259  63.769  70.678  0.00  0.00    +0.000 A 
ATOM     19  N   UNK A   1      62.266  63.786  69.854  0.00  0.00    +0.000 NA
ATOM     20  C   UNK A   1      61.755  63.251  71.077  0.00  0.00    +0.000 C 
ATOM     21  O   UNK A   1      61.748  63.235  71.900  0.00  0.00    +0.000 OA
ATOM     22  N   GLY A   2      61.258  62.750  70.649  0.00  0.00    +0.000 NA
ATOM     23  CA  GLY A   2      60.754  62.232  71.047  0.00  0.00    +0.000 C 
ATOM     24  C   GLY A   2      60.257  61.730  70.620  0.00  0.00    +0.000 C 
ATOM     25  O   GLY A   2      59.753  61.213  71.018  0.00  0.00    +0.000 OA
ATOM     26  OXT GLY A   2      60.264  61.747  69.795  0.00  0.00    +0.000 OA
ENDROOT
TORSDOF 0
ENDMDL
MODEL 5
REMARK VINA RESULT:   -11.456      2.034      5.565
REMARK INTER + INTRA:         -11.456
REMARK INTER:                 -11.456
REMARK INTRA:                   0.000
REMARK UNBOUND:                 0.000
ROOT
REMARK  Name = roxadustat
REMARK                            x       y       z     vdW  Elec       q    Type
REMARK                         _______ _______ _______ _____ _____    ______ ____
ATOM      1  C   UNK A   0      59.263  62.083  66.912  0.00  0.00    +0.000 C 
ATOM      2  C   UNK A   0      60.060  62.285  66.841  0.00  0.00    +0.000 A 
ATOM      3  C   UNK A   1      60.440  62.686  67.454  0.00  0.00    +0.000 A 
ATOM      4  C   UNK A   1      60.024  62.885  68.138  0.00  0.00    +0.000 A 
ATOM      5  C   UNK A   1      60.403  63.285  68.751  0.00  0.00    +0.000 A 
ATOM      6  O   UNK A   1      59.987  63.484  69.434  0.00  0.00    +0.000 OA
ATOM      7  C   UNK A   1      60.367  63.885  70.048  0.00  0.00    +0.000 A 
ATOM      8  C   UNK A   1      59.950  64.083  70.731  0.00  0.00    +0.000 A 
ATOM      9  C   UNK A   1      60.330  64.484  71.344  0.00  0.00    +0.000 A 
ATOM     10  C   UNK A   1      61.127  64.686  71.273  0.00  0.00    +0.000 A 
ATOM     11  C   UNK A   1      61.544  64.487  70.589  0.00  0.00    +0.000 A 
ATOM     12  C   UNK A   1      61.163  64.086  69.977  0.00  0.00    +0.000 A 
ATOM     13  C   UNK A   1      61.200  63.487  68.680  0.00  0.00    +0.000 A 
ATOM     14  C   UNK A   1      61.617  63.288  67.997  0.00  0.00    +0.000 A 
ATOM     15  C   UNK A   1      61.237  62.887  67.383  0.00  0.00    +0.000 A 
ATOM     16  C   UNK A   1      61.654  62.688  66.699  0.00  0.00    +0.000 A 
ATOM     17  O   UNK A   1      62.450  62.890  66.628  0.00  0.00    +0.000 OA
ATOM     18  C   UNK A   1      61.273  62.288  66.087  0.00  0.00    +0.000 A 
ATOM     19  N   UNK A   1      60.476  62.086  66.158  0.00  0.00    +0.000 NA
ATOM     20  C   UNK A   1      61.690  62.089  65.403  0.00  0.00    +0.000 C 
ATOM     21  O   UNK A   1      62.486  62.291  65.333  0.00  0.00    +0.000 OA
ATOM     22  N   GLY A   2      61.310  61.688  64.790  0.00  0.00    +0.000 NA
ATOM     23  CA  GLY A   2      61.727  61.490  64.107  0.00  0.00    +0.000 C 
ATOM     24  C   GLY A   2      61.346  61.089  63.493  0.00  0.00    +0.000 C 
ATOM     25  O   GLY A   2      61.763  60.890  62.810  0.00  0.00    +0.000 OA
ATOM     26  OXT GLY A   2      60.550  60.887  63.564  0.00  0.00    +0.000 OA
ENDROOT
TORSDOF 0
ENDMDL
MODEL 6
REMARK VINA RESULT:   -10.772      3.469      4.159
REMARK INTER + INTRA:         -10.772
REMARK INTER:                 -10.772
REMARK INTRA:                   0.000
REMARK UNBOUND:                 0.000
ROOT
REMARK  Name = roxadustat
REMARK                            x       y       z     vdW  Elec       q    Type
REMARK                         _______ _______ _______ _____ _____    ______ ____
ATOM      1  C   UNK A   0      61.802  66.500  69.845  0.00  0.00    +0.000 C 
ATOM      2  C   UNK A   0      62.371  65.902  69.853  0.00  0.00    +0.000 A 
ATOM      3  C   UNK A   1      62.214  65.179  69.486  0.00  0.00    +0.000 A 
ATOM      4  C   UNK A   1      61.489  65.054  69.111  0.00  0.00    +0.000 A 
ATOM      5  C   UNK A   1      61.333  64.333  68.744  0.00  0.00    +0.000 A 
ATOM      6  O   UNK A   1      60.609  64.208  68.370  0.00  0.00    +0.000 OA
ATOM      7  C   UNK A   1      60.452  63.486  68.003  0.00  0.00    +0.000 A 
ATOM      8  C   UNK A   1      59.728  63.362  67.629  0.00  0.00    +0.000 A 
ATOM      9  C   UNK A   1      59.571  62.640  67.262  0.00  0.00    +0.000 A 
ATOM     10  C   UNK A   1      60.140  62.042  67.270  0.00  0.00    +0.000 A 
ATOM     11  C   UNK A   1      60.865  62.166  67.644  0.00  0.00    +0.000 A 
ATOM     12  C   UNK A   1      61.020  62.888  68.011  0.00  0.00    +0.000 A 
ATOM     13  C   UNK A   1      61.901  63.735  68.752  0.00  0.00    +0.000 A 
ATOM     14  C   UNK A   1      62.626  63.858  69.126  0.00  0.00    +0.000 A 
ATOM     15  C   UNK A   1      62.782  64.581  69.493  0.00  0.00    +0.000 A 
ATOM     16  C   UNK A   1      63.507  64.706  69.868  0.00  0.00    +0.000 A 
ATOM     17  O   UNK A   1      64.075  64.108  69.876  0.00  0.00    +0.000 OA
ATOM     18  C   UNK A   1      63.663  65.428  70.235  0.00  0.00    +0.000 A 
ATOM     19  N   UNK A   1      63.095  66.026  70.227  0.00  0.00    +0.000 NA
ATOM     20  C   UNK A   1      64.388  65.552  70.609  0.00  0.00    +0.000 C 
ATOM     21  O   UNK A   1      64.955  64.954  70.616  0.00  0.00    +0.000 OA
ATOM     22  N   GLY A   2      64.544  66.275  70.976  0.00  0.00    +0.000 NA
ATOM     23  CA  GLY A   2      65.268  66.398  71.350  0.00  0.00    +0.000 C 
ATOM     24  C   GLY A   2      65.425  67.121  71.717  0.00  0.00    +0.000 C 
ATOM     25  O   GLY A   2      66.149  67.245  72.091  0.00  0.00    +0.000 OA
ATOM     26  OXT GLY A   2      64.856  67.719  71.709  0.00  0.00    +0.000 OA
ENDROOT
TORSDOF 0
ENDMDL
