MODEL 1
REMARK VINA RESULT:   -13.633      0.000      0.000
REMARK INTER + INTRA:         -13.633
REMARK INTER:                 -13.633
REMARK INTRA:                   0.000
REMARK UNBOUND:                 0.000
ROOT
REMARK  Name = rubitecan
REMARK                            x       y       z     vdW  Elec       q    Type
REMARK                         _______ _______ _______ _____ _____    ______ ____
ATOM      1  C   UNL     1      62.750  62.032  64.989  0.00  0.00    +0.000 C 
ATOM      2  C   UNL     1      61.993  61.767  64.795  0.00  0.00    +0.000 C 
ATOM      3  C   UNL     1      61.366  61.891  65.318  0.00  0.00    +0.000 C 
ATOM      4  O   UNL     1      61.980  62.241  65.745  0.00  0.00    +0.000 OA
ATOM      5  C   UNL     1      60.971  61.499  64.710  0.00  0.00    +0.000 C 
ATOM      6  O   UNL     1      61.385  61.253  64.039  0.00  0.00    +0.000 OA
ATOM      7  O   UNL     1      60.162  61.351  64.772  0.00  0.00    +0.000 OA
ATOM      8  C   UNL     1      59.748  61.596  65.443  0.00  0.00    +0.000 C 
ATOM      9  C   UNL     1      60.144  61.988  66.051  0.00  0.00    +0.000 A 
ATOM     10  C   UNL     1      60.953  62.136  65.989  0.00  0.00    +0.000 A 
ATOM     11  C   UNL     1      61.349  62.528  66.596  0.00  0.00    +0.000 A 
ATOM     12  C   UNL     1      60.935  62.774  67.268  0.00  0.00    +0.000 A 
ATOM     13  N   UNL     1      60.126  62.626  67.330  0.00  0.00    +0.000 N 
ATOM     14  C   UNL     1      59.866  62.930  68.051  0.00  0.00    +0.000 C 
ATOM     15  C   UNL     1      60.515  63.266  68.434  0.00  0.00    +0.000 A 
ATOM     16  C   UNL     1      60.589  63.647  69.162  0.00  0.00    +0.000 A 
ATOM     17  C   UNL     1      61.324  63.932  69.406  0.00  0.00    +0.000 A 
ATOM     18  C   UNL     1      61.399  64.313  70.133  0.00  0.00    +0.000 A 
ATOM     19  C   UNL     1      62.134  64.598  70.376  0.00  0.00    +0.000 A 
ATOM     20  C   UNL     1      62.795  64.502  69.892  0.00  0.00    +0.000 A 
ATOM     21  C   UNL     1      62.720  64.120  69.165  0.00  0.00    +0.000 A 
ATOM     22  C   UNL     1      61.985  63.835  68.922  0.00  0.00    +0.000 A 
ATOM     23  N   UNL     1      61.911  63.454  68.194  0.00  0.00    +0.000 NA
ATOM     24  C   UNL     1      61.175  63.169  67.951  0.00  0.00    +0.000 A 
ATOM     25  N   UNL     1      60.737  64.410  70.617  0.00  0.00    +0.000 N 
ATOM     26  O   UNL     1      60.002  64.126  70.374  0.00  0.00    +0.000 OA
ATOM     27  O   UNL     1      60.812  64.792  71.345  0.00  0.00    +0.000 OA
ATOM     28  C   UNL     1      59.730  62.233  66.722  0.00  0.00    +0.000 A 
ATOM     29  O   UNL     1      58.921  62.086  66.784  0.00  0.00    +0.000 OA
ENDROOT
TORSDOF 0
ENDMDL
MODEL 2
REMARK VINA RESULT:   -13.256      1.103      4.794
REMARK INTER + INTRA:         -13.256
REMARK INTER:                 -13.256
REMARK INTRA:                   0.000
REMARK UNBOUND:                 0.000
ROOT
REMARK  Name = rubitecan
REMARK                            x       y       z     vdW  Elec       q    Type
REMARK                         _______ _______ _______ _____ _____    ______ ____
ATOM      1  C   UNL     1      64.241  64.628  69.692  0.00  0.00    +0.000 C 
ATOM      2  C   UNL     1      63.721  64.777  70.315  0.00  0.00    +0.000 C 
ATOM      3  C   UNL     1      62.926  64.564  70.249  0.00  0.00    +0.000 C 
ATOM      4  O   UNL     1      63.204  64.311  69.514  0.00  0.00    +0.000 OA
ATOM      5  C   UNL     1      62.925  64.890  71.005  0.00  0.00    +0.000 C 
ATOM      6  O   UNL     1      63.622  65.191  71.328  0.00  0.00    +0.000 OA
ATOM      7  O   UNL     1      62.224  64.916  71.441  0.00  0.00    +0.000 OA
ATOM      8  C   UNL     1      61.527  64.615  71.120  0.00  0.00    +0.000 C 
ATOM      9  C   UNL     1      61.528  64.289  70.362  0.00  0.00    +0.000 A 
ATOM     10  C   UNL     1      62.229  64.263  69.926  0.00  0.00    +0.000 A 
ATOM     11  C   UNL     1      62.231  63.937  69.169  0.00  0.00    +0.000 A 
ATOM     12  C   UNL     1      61.532  63.635  68.847  0.00  0.00    +0.000 A 
ATOM     13  N   UNL     1      60.833  63.661  69.283  0.00  0.00    +0.000 N 
ATOM     14  C   UNL     1      60.235  63.325  68.826  0.00  0.00    +0.000 C 
ATOM     15  C   UNL     1      60.565  63.092  68.107  0.00  0.00    +0.000 A 
ATOM     16  C   UNL     1      60.239  62.729  67.442  0.00  0.00    +0.000 A 
ATOM     17  C   UNL     1      60.714  62.557  66.789  0.00  0.00    +0.000 A 
ATOM     18  C   UNL     1      60.389  62.195  66.125  0.00  0.00    +0.000 A 
ATOM     19  C   UNL     1      60.865  62.024  65.473  0.00  0.00    +0.000 A 
ATOM     20  C   UNL     1      61.667  62.215  65.486  0.00  0.00    +0.000 A 
ATOM     21  C   UNL     1      61.993  62.578  66.151  0.00  0.00    +0.000 A 
ATOM     22  C   UNL     1      61.517  62.749  66.803  0.00  0.00    +0.000 A 
ATOM     23  N   UNL     1      61.844  63.112  67.468  0.00  0.00    +0.000 NA
ATOM     24  C   UNL     1      61.367  63.283  68.120  0.00  0.00    +0.000 A 
ATOM     25  N   UNL     1      59.586  62.003  66.112  0.00  0.00    +0.000 N 
ATOM     26  O   UNL     1      59.110  62.174  66.763  0.00  0.00    +0.000 OA
ATOM     27  O   UNL     1      59.260  61.640  65.446  0.00  0.00    +0.000 OA
ATOM     28  C   UNL     1      60.831  63.988  70.041  0.00  0.00    +0.000 A 
ATOM     29  O   UNL     1      60.131  64.014  70.477  0.00  0.00    +0.000 OA
ENDROOT
TORSDOF 0
ENDMDL
MODEL 3
REMARK VINA RESULT:   -12.941      3.293      5.321
REMARK INTER + INTRA:         -12.941
REMARK INTER:                 -12.941
REMARK INTRA:                   0.000
REMARK UNBOUND:                 0.000
ROOT
REMARK  Name = rubitecan
REMARK                            x       y       z     vdW  Elec       q    Type
REMARK                         _______ _______ _______ _____ _____    ______ ____
ATOM      1  C   UNL     1      61.264  63.459  72.806  0.00  0.00    +0.000 C 
ATOM      2  C   UNL     1      61.011  63.128  72.095  0.00  0.00    +0.000 C 
ATOM      3  C   UNL     1      61.360  63.360  71.384  0.00  0.00    +0.000 C 
ATOM      4  O   UNL     1      61.787  63.828  71.913  0.00  0.00    +0.000 OA
ATOM      5  C   UNL     1      60.813  62.812  71.102  0.00  0.00    +0.000 C 
ATOM      6  O   UNL     1      60.314  62.417  71.629  0.00  0.00    +0.000 OA
ATOM      7  O   UNL     1      60.763  62.658  70.293  0.00  0.00    +0.000 OA
ATOM      8  C   UNL     1      61.261  63.052  69.767  0.00  0.00    +0.000 C 
ATOM      9  C   UNL     1      61.809  63.600  70.048  0.00  0.00    +0.000 A 
ATOM     10  C   UNL     1      61.859  63.755  70.858  0.00  0.00    +0.000 A 
ATOM     11  C   UNL     1      62.406  64.302  71.140  0.00  0.00    +0.000 A 
ATOM     12  C   UNL     1      62.905  64.697  70.613  0.00  0.00    +0.000 A 
ATOM     13  N   UNL     1      62.855  64.543  69.805  0.00  0.00    +0.000 N 
ATOM     14  C   UNL     1      63.414  65.012  69.421  0.00  0.00    +0.000 C 
ATOM     15  C   UNL     1      63.809  65.457  69.992  0.00  0.00    +0.000 A 
ATOM     16  C   UNL     1      64.415  66.014  69.936  0.00  0.00    +0.000 A 
ATOM     17  C   UNL     1      64.707  66.377  70.618  0.00  0.00    +0.000 A 
ATOM     18  C   UNL     1      65.312  66.933  70.562  0.00  0.00    +0.000 A 
ATOM     19  C   UNL     1      65.603  67.295  71.244  0.00  0.00    +0.000 A 
ATOM     20  C   UNL     1      65.289  67.101  71.982  0.00  0.00    +0.000 A 
ATOM     21  C   UNL     1      64.683  66.544  72.037  0.00  0.00    +0.000 A 
ATOM     22  C   UNL     1      64.392  66.182  71.355  0.00  0.00    +0.000 A 
ATOM     23  N   UNL     1      63.786  65.624  71.412  0.00  0.00    +0.000 NA
ATOM     24  C   UNL     1      63.495  65.262  70.729  0.00  0.00    +0.000 A 
ATOM     25  N   UNL     1      65.626  67.129  69.825  0.00  0.00    +0.000 N 
ATOM     26  O   UNL     1      65.335  66.766  69.143  0.00  0.00    +0.000 OA
ATOM     27  O   UNL     1      66.232  67.686  69.770  0.00  0.00    +0.000 OA
ATOM     28  C   UNL     1      62.307  63.995  69.522  0.00  0.00    +0.000 A 
ATOM     29  O   UNL     1      62.257  63.840  68.714  0.00  0.00    +0.000 OA
ENDROOT
TORSDOF 0
ENDMDL
MODEL 4
REMARK VINA RESULT:   -12.784      3.999      6.103
REMARK INTER + INTRA:         -12.784
REMARK INTER:                 -12.784
REMARK INTRA:                   0.000
REMARK UNBOUND:                 0.000
ROOT
REMARK  Name = rubitecan
REMARK                            x       y       z     vdW  Elec       q    Type
REMARK                         _______ _______ _______ _____ _____    ______ ____
ATOM      1  C   UNL     1      64.396  67.592  72.347  0.00  0.00    +0.000 C 
ATOM      2  C   UNL     1      64.874  67.507  71.680  0.00  0.00    +0.000 C 
ATOM      3  C   UNL     1      64.742  66.884  71.155  0.00  0.00    +0.000 C 
ATOM      4  O   UNL     1      64.146  66.735  71.706  0.00  0.00    +0.000 OA
ATOM      5  C   UNL     1      65.382  67.249  70.787  0.00  0.00    +0.000 C 
ATOM      6  O   UNL     1      65.722  67.924  71.120  0.00  0.00    +0.000 OA
ATOM      7  O   UNL     1      65.685  66.939  70.084  0.00  0.00    +0.000 OA
ATOM      8  C   UNL     1      65.346  66.265  69.751  0.00  0.00    +0.000 C 
ATOM      9  C   UNL     1      64.705  65.900  70.119  0.00  0.00    +0.000 A 
ATOM     10  C   UNL     1      64.403  66.209  70.822  0.00  0.00    +0.000 A 
ATOM     11  C   UNL     1      63.762  65.845  71.191  0.00  0.00    +0.000 A 
ATOM     12  C   UNL     1      63.423  65.169  70.857  0.00  0.00    +0.000 A 
ATOM     13  N   UNL     1      63.725  64.861  70.155  0.00  0.00    +0.000 N 
ATOM     14  C   UNL     1      63.281  64.194  69.958  0.00  0.00    +0.000 C 
ATOM     15  C   UNL     1      62.704  64.092  70.538  0.00  0.00    +0.000 A 
ATOM     16  C   UNL     1      62.110  63.527  70.632  0.00  0.00    +0.000 A 
ATOM     17  C   UNL     1      61.603  63.565  71.282  0.00  0.00    +0.000 A 
ATOM     18  C   UNL     1      61.009  63.002  71.376  0.00  0.00    +0.000 A 
ATOM     19  C   UNL     1      60.503  63.040  72.026  0.00  0.00    +0.000 A 
ATOM     20  C   UNL     1      60.590  63.643  72.583  0.00  0.00    +0.000 A 
ATOM     21  C   UNL     1      61.184  64.207  72.489  0.00  0.00    +0.000 A 
ATOM     22  C   UNL     1      61.690  64.168  71.839  0.00  0.00    +0.000 A 
ATOM     23  N   UNL     1      62.285  64.733  71.745  0.00  0.00    +0.000 NA
ATOM     24  C   UNL     1      62.791  64.694  71.094  0.00  0.00    +0.000 A 
ATOM     25  N   UNL     1      60.921  62.398  70.820  0.00  0.00    +0.000 N 
ATOM     26  O   UNL     1      61.428  62.360  70.170  0.00  0.00    +0.000 OA
ATOM     27  O   UNL     1      60.327  61.834  70.914  0.00  0.00    +0.000 OA
ATOM     28  C   UNL     1      64.366  65.225  69.786  0.00  0.00    +0.000 A 
ATOM     29  O   UNL     1      64.669  64.916  69.084  0.00  0.00    +0.000 OA
ENDROOT
TORSDOF 0
ENDMDL
MODEL 5
REMARK VINA RESULT:   -12.461      2.341      5.871
REMARK INTER + INTRA:         -12.461
REMARK INTER:                 -12.461
REMARK INTRA:                   0.000
REMARK UNBOUND:                 0.000
ROOT
REMARK  Name = rubitecan
REMARK                            x       y       z     vdW  Elec       q    Type
REMARK                         _______ _______ _______ _____ _____    ______ ____
ATOM      1  C   UNL     1      60.146  65.677  73.222  0.00  0.00    +0.000 C 
ATOM      2  C   UNL     1      59.950  66.392  72.861  0.00  0.00    +0.000 C 
ATOM      3  C   UNL     1      59.854  66.429  72.042  0.00  0.00    +0.000 C 
ATOM      4  O   UNL     1      60.040  65.629  72.129  0.00  0.00    +0.000 OA
ATOM      5  C   UNL     1      59.702  67.214  72.240  0.00  0.00    +0.000 C 
ATOM      6  O   UNL     1      59.733  67.456  73.028  0.00  0.00    +0.000 OA
ATOM      7  O   UNL     1      59.519  67.760  71.648  0.00  0.00    +0.000 OA
ATOM      8  C   UNL     1      59.487  67.519  70.860  0.00  0.00    +0.000 C 
ATOM      9  C   UNL     1      59.640  66.733  70.662  0.00  0.00    +0.000 A 
ATOM     10  C   UNL     1      59.823  66.187  71.254  0.00  0.00    +0.000 A 
ATOM     11  C   UNL     1      59.975  65.401  71.057  0.00  0.00    +0.000 A 
ATOM     12  C   UNL     1      59.944  65.160  70.268  0.00  0.00    +0.000 A 
ATOM     13  N   UNL     1      59.761  65.705  69.677  0.00  0.00    +0.000 N 
ATOM     14  C   UNL     1      59.771  65.310  68.953  0.00  0.00    +0.000 C 
ATOM     15  C   UNL     1      59.960  64.520  69.097  0.00  0.00    +0.000 A 
ATOM     16  C   UNL     1      60.049  63.873  68.593  0.00  0.00    +0.000 A 
ATOM     17  C   UNL     1      60.245  63.133  68.901  0.00  0.00    +0.000 A 
ATOM     18  C   UNL     1      60.334  62.487  68.397  0.00  0.00    +0.000 A 
ATOM     19  C   UNL     1      60.530  61.747  68.706  0.00  0.00    +0.000 A 
ATOM     20  C   UNL     1      60.637  61.654  69.519  0.00  0.00    +0.000 A 
ATOM     21  C   UNL     1      60.549  62.301  70.022  0.00  0.00    +0.000 A 
ATOM     22  C   UNL     1      60.353  63.040  69.714  0.00  0.00    +0.000 A 
ATOM     23  N   UNL     1      60.264  63.687  70.218  0.00  0.00    +0.000 NA
ATOM     24  C   UNL     1      60.068  64.427  69.909  0.00  0.00    +0.000 A 
ATOM     25  N   UNL     1      60.227  62.579  67.584  0.00  0.00    +0.000 N 
ATOM     26  O   UNL     1      60.031  63.319  67.276  0.00  0.00    +0.000 OA
ATOM     27  O   UNL     1      60.316  61.932  67.081  0.00  0.00    +0.000 OA
ATOM     28  C   UNL     1      59.609  66.492  69.874  0.00  0.00    +0.000 A 
ATOM     29  O   UNL     1      59.425  67.037  69.283  0.00  0.00    +0.000 OA
ENDROOT
TORSDOF 0
ENDMDL
MODEL 6
REMARK VINA RESULT:   -10.839     24.691     25.986
REMARK INTER + INTRA:         -10.839
REMARK INTER:                 -10.839
REMARK INTRA:                   0.000
REMARK UNBOUND:                 0.000
ROOT
REMARK  Name = rubitecan
REMARK                            x       y       z     vdW  Elec       q    Type
REMARK                         _______ _______ _______ _____ _____    ______ ____
ATOM      1  C   UNL     1      71.006  78.676  48.098  0.00  0.00    +0.000 C 
ATOM      2  C   UNL     1      71.759  78.902  48.347  0.00  0.00    +0.000 C 
ATOM      3  C   UNL     1      71.850  79.339  49.042  0.00  0.00    +0.000 C 
ATOM      4  O   UNL     1      71.029  79.254  49.033  0.00  0.00    +0.000 OA
ATOM      5  C   UNL     1      72.638  79.272  48.810  0.00  0.00    +0.000 C 
ATOM      6  O   UNL     1      72.833  78.865  48.118  0.00  0.00    +0.000 OA
ATOM      7  O   UNL     1      73.233  79.613  49.269  0.00  0.00    +0.000 OA
ATOM      8  C   UNL     1      73.039  80.019  49.960  0.00  0.00    +0.000 C 
ATOM      9  C   UNL     1      72.251  80.086  50.192  0.00  0.00    +0.000 A 
ATOM     10  C   UNL     1      71.655  79.746  49.733  0.00  0.00    +0.000 A 
ATOM     11  C   UNL     1      70.867  79.812  49.964  0.00  0.00    +0.000 A 
ATOM     12  C   UNL     1      70.673  80.219  50.656  0.00  0.00    +0.000 A 
ATOM     13  N   UNL     1      71.268  80.559  51.115  0.00  0.00    +0.000 N 
ATOM     14  C   UNL     1      70.912  80.924  51.763  0.00  0.00    +0.000 C 
ATOM     15  C   UNL     1      70.098  80.809  51.705  0.00  0.00    +0.000 A 
ATOM     16  C   UNL     1      69.471  81.046  52.188  0.00  0.00    +0.000 A 
ATOM     17  C   UNL     1      68.696  80.846  51.985  0.00  0.00    +0.000 A 
ATOM     18  C   UNL     1      68.070  81.082  52.467  0.00  0.00    +0.000 A 
ATOM     19  C   UNL     1      67.296  80.882  52.264  0.00  0.00    +0.000 A 
ATOM     20  C   UNL     1      67.147  80.446  51.580  0.00  0.00    +0.000 A 
ATOM     21  C   UNL     1      67.774  80.210  51.098  0.00  0.00    +0.000 A 
ATOM     22  C   UNL     1      68.548  80.410  51.301  0.00  0.00    +0.000 A 
ATOM     23  N   UNL     1      69.174  80.174  50.818  0.00  0.00    +0.000 NA
ATOM     24  C   UNL     1      69.949  80.374  51.021  0.00  0.00    +0.000 A 
ATOM     25  N   UNL     1      68.218  81.518  53.152  0.00  0.00    +0.000 N 
ATOM     26  O   UNL     1      68.993  81.718  53.354  0.00  0.00    +0.000 OA
ATOM     27  O   UNL     1      67.592  81.754  53.633  0.00  0.00    +0.000 OA
ATOM     28  C   UNL     1      72.057  80.493  50.883  0.00  0.00    +0.000 A 
ATOM     29  O   UNL     1      72.652  80.833  51.342  0.00  0.00    +0.000 OA
ENDROOT
TORSDOF 0
ENDMDL
MODEL 7
REMARK VINA RESULT:   -10.709     13.824     14.481
REMARK INTER + INTRA:         -10.709
REMARK INTER:                 -10.709
REMARK INTRA:                   0.000
REMARK UNBOUND:                 0.000
ROOT
REMARK  Name = rubitecan
REMARK                            x       y       z     vdW  Elec       q    Type
REMARK                         _______ _______ _______ _____ _____    ______ ____
ATOM      1  C   UNL     1      63.870  67.336  54.893  0.00  0.00    +0.000 C 
ATOM      2  C   UNL     1      63.123  67.580  54.641  0.00  0.00    +0.000 C 
ATOM      3  C   UNL     1      62.595  67.030  54.323  0.00  0.00    +0.000 C 
ATOM      4  O   UNL     1      63.237  66.536  54.484  0.00  0.00    +0.000 OA
ATOM      5  C   UNL     1      62.138  67.713  54.273  0.00  0.00    +0.000 C 
ATOM      6  O   UNL     1      62.442  68.435  54.534  0.00  0.00    +0.000 OA
ATOM      7  O   UNL     1      61.375  67.677  53.960  0.00  0.00    +0.000 OA
ATOM      8  C   UNL     1      61.071  66.956  53.698  0.00  0.00    +0.000 C 
ATOM      9  C   UNL     1      61.528  66.272  53.749  0.00  0.00    +0.000 A 
ATOM     10  C   UNL     1      62.291  66.308  54.062  0.00  0.00    +0.000 A 
ATOM     11  C   UNL     1      62.750  65.625  54.113  0.00  0.00    +0.000 A 
ATOM     12  C   UNL     1      62.445  64.903  53.851  0.00  0.00    +0.000 A 
ATOM     13  N   UNL     1      61.683  64.867  53.539  0.00  0.00    +0.000 N 
ATOM     14  C   UNL     1      61.531  64.084  53.327  0.00  0.00    +0.000 C 
ATOM     15  C   UNL     1      62.201  63.638  53.508  0.00  0.00    +0.000 A 
ATOM     16  C   UNL     1      62.368  62.835  53.420  0.00  0.00    +0.000 A 
ATOM     17  C   UNL     1      63.101  62.537  53.656  0.00  0.00    +0.000 A 
ATOM     18  C   UNL     1      63.270  61.736  53.568  0.00  0.00    +0.000 A 
ATOM     19  C   UNL     1      64.002  61.439  53.804  0.00  0.00    +0.000 A 
ATOM     20  C   UNL     1      64.568  61.945  54.128  0.00  0.00    +0.000 A 
ATOM     21  C   UNL     1      64.399  62.748  54.216  0.00  0.00    +0.000 A 
ATOM     22  C   UNL     1      63.667  63.044  53.980  0.00  0.00    +0.000 A 
ATOM     23  N   UNL     1      63.499  63.847  54.068  0.00  0.00    +0.000 NA
ATOM     24  C   UNL     1      62.765  64.143  53.832  0.00  0.00    +0.000 A 
ATOM     25  N   UNL     1      62.705  61.229  53.243  0.00  0.00    +0.000 N 
ATOM     26  O   UNL     1      61.972  61.525  53.007  0.00  0.00    +0.000 OA
ATOM     27  O   UNL     1      62.873  60.426  53.155  0.00  0.00    +0.000 OA
ATOM     28  C   UNL     1      61.224  65.551  53.488  0.00  0.00    +0.000 A 
ATOM     29  O   UNL     1      60.462  65.514  53.176  0.00  0.00    +0.000 OA
ENDROOT
TORSDOF 0
ENDMDL
