MODEL 1
REMARK VINA RESULT:   -12.161      0.000      0.000
REMARK INTER + INTRA:         -12.161
REMARK INTER:                 -12.161
REMARK INTRA:                   0.000
REMARK UNBOUND:                 0.000
ROOT
REMARK  Name = rucaparib
REMARK                            x       y       z     vdW  Elec       q    Type
REMARK                         _______ _______ _______ _____ _____    ______ ____
ATOM      1  C   UNL     1      62.375  61.627  63.485  0.00  0.00    +0.000 C 
ATOM      2  N   UNL     1      62.137  61.638  64.275  0.00  0.00    +0.000 NA
ATOM      3  C   UNL     1      62.003  62.358  64.657  0.00  0.00    +0.000 C 
ATOM      4  C   UNL     1      61.766  62.368  65.446  0.00  0.00    +0.000 A 
ATOM      5  C   UNL     1      61.631  63.087  65.828  0.00  0.00    +0.000 A 
ATOM      6  C   UNL     1      61.394  63.098  66.618  0.00  0.00    +0.000 A 
ATOM      7  C   UNL     1      61.291  62.389  67.027  0.00  0.00    +0.000 A 
ATOM      8  C   UNL     1      61.426  61.669  66.646  0.00  0.00    +0.000 A 
ATOM      9  C   UNL     1      61.663  61.659  65.856  0.00  0.00    +0.000 A 
ATOM     10  C   UNL     1      61.054  62.399  67.817  0.00  0.00    +0.000 C 
ATOM     11  C   UNL     1      60.900  63.072  68.269  0.00  0.00    +0.000 C 
ATOM     12  C   UNL     1      60.966  63.840  67.975  0.00  0.00    +0.000 C 
ATOM     13  C   UNL     1      60.828  64.553  68.366  0.00  0.00    +0.000 C 
ATOM     14  N   UNL     1      60.591  64.674  69.147  0.00  0.00    +0.000 NA
ATOM     15  C   UNL     1      60.432  64.112  69.730  0.00  0.00    +0.000 C 
ATOM     16  O   UNL     1      60.203  64.411  70.464  0.00  0.00    +0.000 OA
ATOM     17  C   UNL     1      60.472  63.290  69.675  0.00  0.00    +0.000 C 
ATOM     18  C   UNL     1      60.269  62.845  70.393  0.00  0.00    +0.000 C 
ATOM     19  C   UNL     1      60.288  62.020  70.410  0.00  0.00    +0.000 C 
ATOM     20  F   UNL     1      60.092  61.617  71.102  0.00  0.00    +0.000 F 
ATOM     21  C   UNL     1      60.502  61.599  69.734  0.00  0.00    +0.000 C 
ATOM     22  C   UNL     1      60.699  62.003  69.041  0.00  0.00    +0.000 C 
ATOM     23  N   UNL     1      60.930  61.738  68.295  0.00  0.00    +0.000 NA
ATOM     24  C   UNL     1      60.680  62.826  69.025  0.00  0.00    +0.000 C 
ENDROOT
TORSDOF 0
ENDMDL
MODEL 2
REMARK VINA RESULT:   -12.034      1.782      2.523
REMARK INTER + INTRA:         -12.034
REMARK INTER:                 -12.034
REMARK INTRA:                   0.000
REMARK UNBOUND:                 0.000
ROOT
REMARK  Name = rucaparib
REMARK                            x       y       z     vdW  Elec       q    Type
REMARK                         _______ _______ _______ _____ _____    ______ ____
ATOM      1  C   UNL     1      59.879  61.870  65.550  0.00  0.00    +0.000 C 
ATOM      2  N   UNL     1      60.091  61.877  66.347  0.00  0.00    +0.000 NA
ATOM      3  C   UNL     1      59.930  62.540  66.812  0.00  0.00    +0.000 C 
ATOM      4  C   UNL     1      60.143  62.545  67.609  0.00  0.00    +0.000 A 
ATOM      5  C   UNL     1      59.982  63.208  68.074  0.00  0.00    +0.000 A 
ATOM      6  C   UNL     1      60.194  63.215  68.871  0.00  0.00    +0.000 A 
ATOM      7  C   UNL     1      60.567  62.559  69.204  0.00  0.00    +0.000 A 
ATOM      8  C   UNL     1      60.728  61.896  68.739  0.00  0.00    +0.000 A 
ATOM      9  C   UNL     1      60.515  61.890  67.942  0.00  0.00    +0.000 A 
ATOM     10  C   UNL     1      60.779  62.565  70.000  0.00  0.00    +0.000 C 
ATOM     11  C   UNL     1      60.655  63.185  70.531  0.00  0.00    +0.000 C 
ATOM     12  C   UNL     1      60.292  63.895  70.322  0.00  0.00    +0.000 C 
ATOM     13  C   UNL     1      60.136  64.552  70.796  0.00  0.00    +0.000 C 
ATOM     14  N   UNL     1      60.305  64.661  71.596  0.00  0.00    +0.000 NA
ATOM     15  C   UNL     1      60.672  64.139  72.120  0.00  0.00    +0.000 C 
ATOM     16  O   UNL     1      60.762  64.413  72.893  0.00  0.00    +0.000 OA
ATOM     17  C   UNL     1      60.960  63.380  71.973  0.00  0.00    +0.000 C 
ATOM     18  C   UNL     1      61.320  62.966  72.646  0.00  0.00    +0.000 C 
ATOM     19  C   UNL     1      61.629  62.204  72.570  0.00  0.00    +0.000 C 
ATOM     20  F   UNL     1      61.967  61.830  73.222  0.00  0.00    +0.000 F 
ATOM     21  C   UNL     1      61.599  61.819  71.842  0.00  0.00    +0.000 C 
ATOM     22  C   UNL     1      61.261  62.194  71.190  0.00  0.00    +0.000 C 
ATOM     23  N   UNL     1      61.154  61.953  70.408  0.00  0.00    +0.000 NA
ATOM     24  C   UNL     1      60.953  62.955  71.265  0.00  0.00    +0.000 C 
ENDROOT
TORSDOF 0
ENDMDL
MODEL 3
REMARK VINA RESULT:   -11.983      2.400      4.673
REMARK INTER + INTRA:         -11.983
REMARK INTER:                 -11.983
REMARK INTRA:                   0.000
REMARK UNBOUND:                 0.000
ROOT
REMARK  Name = rucaparib
REMARK                            x       y       z     vdW  Elec       q    Type
REMARK                         _______ _______ _______ _____ _____    ______ ____
ATOM      1  C   UNL     1      60.963  64.988  71.250  0.00  0.00    +0.000 C 
ATOM      2  N   UNL     1      61.140  64.644  70.522  0.00  0.00    +0.000 NA
ATOM      3  C   UNL     1      60.548  64.264  70.089  0.00  0.00    +0.000 C 
ATOM      4  C   UNL     1      60.726  63.920  69.361  0.00  0.00    +0.000 A 
ATOM      5  C   UNL     1      60.135  63.540  68.929  0.00  0.00    +0.000 A 
ATOM      6  C   UNL     1      60.312  63.196  68.200  0.00  0.00    +0.000 A 
ATOM      7  C   UNL     1      61.081  63.231  67.904  0.00  0.00    +0.000 A 
ATOM      8  C   UNL     1      61.673  63.611  68.336  0.00  0.00    +0.000 A 
ATOM      9  C   UNL     1      61.495  63.955  69.064  0.00  0.00    +0.000 A 
ATOM     10  C   UNL     1      61.259  62.887  67.176  0.00  0.00    +0.000 C 
ATOM     11  C   UNL     1      60.728  62.491  66.684  0.00  0.00    +0.000 C 
ATOM     12  C   UNL     1      59.930  62.388  66.866  0.00  0.00    +0.000 C 
ATOM     13  C   UNL     1      59.347  62.006  66.426  0.00  0.00    +0.000 C 
ATOM     14  N   UNL     1      59.417  61.632  65.693  0.00  0.00    +0.000 NA
ATOM     15  C   UNL     1      60.088  61.549  65.221  0.00  0.00    +0.000 C 
ATOM     16  O   UNL     1      59.979  61.142  64.511  0.00  0.00    +0.000 OA
ATOM     17  C   UNL     1      60.855  61.818  65.364  0.00  0.00    +0.000 C 
ATOM     18  C   UNL     1      61.447  61.641  64.754  0.00  0.00    +0.000 C 
ATOM     19  C   UNL     1      62.233  61.881  64.832  0.00  0.00    +0.000 C 
ATOM     20  F   UNL     1      62.780  61.703  64.241  0.00  0.00    +0.000 F 
ATOM     21  C   UNL     1      62.472  62.299  65.502  0.00  0.00    +0.000 C 
ATOM     22  C   UNL     1      61.925  62.477  66.094  0.00  0.00    +0.000 C 
ATOM     23  N   UNL     1      61.999  62.878  66.811  0.00  0.00    +0.000 NA
ATOM     24  C   UNL     1      61.140  62.238  66.016  0.00  0.00    +0.000 C 
ENDROOT
TORSDOF 0
ENDMDL
MODEL 4
REMARK VINA RESULT:   -11.603      3.418      4.893
REMARK INTER + INTRA:         -11.603
REMARK INTER:                 -11.603
REMARK INTRA:                   0.000
REMARK UNBOUND:                 0.000
ROOT
REMARK  Name = rucaparib
REMARK                            x       y       z     vdW  Elec       q    Type
REMARK                         _______ _______ _______ _____ _____    ______ ____
ATOM      1  C   UNL     1      66.403  67.755  70.033  0.00  0.00    +0.000 C 
ATOM      2  N   UNL     1      65.816  67.249  70.316  0.00  0.00    +0.000 NA
ATOM      3  C   UNL     1      65.367  66.801  69.788  0.00  0.00    +0.000 C 
ATOM      4  C   UNL     1      64.781  66.295  70.073  0.00  0.00    +0.000 A 
ATOM      5  C   UNL     1      64.331  65.847  69.545  0.00  0.00    +0.000 A 
ATOM      6  C   UNL     1      63.744  65.341  69.828  0.00  0.00    +0.000 A 
ATOM      7  C   UNL     1      63.607  65.283  70.640  0.00  0.00    +0.000 A 
ATOM      8  C   UNL     1      64.056  65.731  71.167  0.00  0.00    +0.000 A 
ATOM      9  C   UNL     1      64.642  66.237  70.883  0.00  0.00    +0.000 A 
ATOM     10  C   UNL     1      63.021  64.777  70.923  0.00  0.00    +0.000 C 
ATOM     11  C   UNL     1      62.530  64.297  70.465  0.00  0.00    +0.000 C 
ATOM     12  C   UNL     1      62.568  64.265  69.641  0.00  0.00    +0.000 C 
ATOM     13  C   UNL     1      62.113  63.812  69.123  0.00  0.00    +0.000 C 
ATOM     14  N   UNL     1      61.508  63.281  69.300  0.00  0.00    +0.000 NA
ATOM     15  C   UNL     1      61.207  63.070  70.039  0.00  0.00    +0.000 C 
ATOM     16  O   UNL     1      60.595  62.517  70.034  0.00  0.00    +0.000 OA
ATOM     17  C   UNL     1      61.439  63.340  70.784  0.00  0.00    +0.000 C 
ATOM     18  C   UNL     1      61.012  63.009  71.465  0.00  0.00    +0.000 C 
ATOM     19  C   UNL     1      61.192  63.235  72.238  0.00  0.00    +0.000 C 
ATOM     20  F   UNL     1      60.774  62.909  72.870  0.00  0.00    +0.000 F 
ATOM     21  C   UNL     1      61.789  63.785  72.379  0.00  0.00    +0.000 C 
ATOM     22  C   UNL     1      62.207  64.111  71.746  0.00  0.00    +0.000 C 
ATOM     23  N   UNL     1      62.821  64.662  71.715  0.00  0.00    +0.000 NA
ATOM     24  C   UNL     1      62.028  63.886  70.974  0.00  0.00    +0.000 C 
ENDROOT
TORSDOF 0
ENDMDL
MODEL 5
REMARK VINA RESULT:   -11.511      1.193      2.033
REMARK INTER + INTRA:         -11.511
REMARK INTER:                 -11.511
REMARK INTRA:                   0.000
REMARK UNBOUND:                 0.000
ROOT
REMARK  Name = rucaparib
REMARK                            x       y       z     vdW  Elec       q    Type
REMARK                         _______ _______ _______ _____ _____    ______ ____
ATOM      1  C   UNL     1      61.944  61.645  64.213  0.00  0.00    +0.000 C 
ATOM      2  N   UNL     1      61.738  62.049  64.902  0.00  0.00    +0.000 NA
ATOM      3  C   UNL     1      61.602  61.631  65.602  0.00  0.00    +0.000 C 
ATOM      4  C   UNL     1      61.396  62.037  66.290  0.00  0.00    +0.000 A 
ATOM      5  C   UNL     1      61.261  61.619  66.989  0.00  0.00    +0.000 A 
ATOM      6  C   UNL     1      61.055  62.023  67.678  0.00  0.00    +0.000 A 
ATOM      7  C   UNL     1      60.984  62.846  67.668  0.00  0.00    +0.000 A 
ATOM      8  C   UNL     1      61.119  63.263  66.969  0.00  0.00    +0.000 A 
ATOM      9  C   UNL     1      61.325  62.858  66.281  0.00  0.00    +0.000 A 
ATOM     10  C   UNL     1      60.778  63.250  68.356  0.00  0.00    +0.000 C 
ATOM     11  C   UNL     1      60.626  62.910  69.093  0.00  0.00    +0.000 C 
ATOM     12  C   UNL     1      60.664  62.098  69.233  0.00  0.00    +0.000 C 
ATOM     13  C   UNL     1      60.527  61.691  69.937  0.00  0.00    +0.000 C 
ATOM     14  N   UNL     1      60.317  61.996  70.675  0.00  0.00    +0.000 NA
ATOM     15  C   UNL     1      60.194  62.783  70.891  0.00  0.00    +0.000 C 
ATOM     16  O   UNL     1      59.988  62.910  71.679  0.00  0.00    +0.000 OA
ATOM     17  C   UNL     1      60.249  63.459  70.421  0.00  0.00    +0.000 C 
ATOM     18  C   UNL     1      60.085  64.216  70.814  0.00  0.00    +0.000 C 
ATOM     19  C   UNL     1      60.122  64.932  70.404  0.00  0.00    +0.000 C 
ATOM     20  F   UNL     1      59.962  65.640  70.796  0.00  0.00    +0.000 F 
ATOM     21  C   UNL     1      60.319  64.939  69.604  0.00  0.00    +0.000 C 
ATOM     22  C   UNL     1      60.479  64.231  69.212  0.00  0.00    +0.000 C 
ATOM     23  N   UNL     1      60.687  64.067  68.430  0.00  0.00    +0.000 NA
ATOM     24  C   UNL     1      60.442  63.516  69.620  0.00  0.00    +0.000 C 
ENDROOT
TORSDOF 0
ENDMDL
MODEL 6
REMARK VINA RESULT:   -11.387      2.561      4.882
REMARK INTER + INTRA:         -11.387
REMARK INTER:                 -11.387
REMARK INTRA:                   0.000
REMARK UNBOUND:                 0.000
ROOT
REMARK  Name = rucaparib
REMARK                            x       y       z     vdW  Elec       q    Type
REMARK                         _______ _______ _______ _____ _____    ______ ____
ATOM      1  C   UNL     1      60.135  63.800  70.400  0.00  0.00    +0.000 C 
ATOM      2  N   UNL     1      60.148  63.420  69.668  0.00  0.00    +0.000 NA
ATOM      3  C   UNL     1      60.776  63.546  69.148  0.00  0.00    +0.000 C 
ATOM      4  C   UNL     1      60.788  63.166  68.416  0.00  0.00    +0.000 A 
ATOM      5  C   UNL     1      61.416  63.292  67.896  0.00  0.00    +0.000 A 
ATOM      6  C   UNL     1      61.429  62.912  67.163  0.00  0.00    +0.000 A 
ATOM      7  C   UNL     1      60.813  62.405  66.952  0.00  0.00    +0.000 A 
ATOM      8  C   UNL     1      60.185  62.278  67.472  0.00  0.00    +0.000 A 
ATOM      9  C   UNL     1      60.173  62.659  68.204  0.00  0.00    +0.000 A 
ATOM     10  C   UNL     1      60.825  62.025  66.220  0.00  0.00    +0.000 C 
ATOM     11  C   UNL     1      61.413  62.097  65.645  0.00  0.00    +0.000 C 
ATOM     12  C   UNL     1      62.080  62.573  65.736  0.00  0.00    +0.000 C 
ATOM     13  C   UNL     1      62.703  62.692  65.208  0.00  0.00    +0.000 C 
ATOM     14  N   UNL     1      62.812  62.365  64.459  0.00  0.00    +0.000 NA
ATOM     15  C   UNL     1      62.325  61.837  64.052  0.00  0.00    +0.000 C 
ATOM     16  O   UNL     1      62.588  61.609  63.304  0.00  0.00    +0.000 OA
ATOM     17  C   UNL     1      61.608  61.507  64.295  0.00  0.00    +0.000 C 
ATOM     18  C   UNL     1      61.224  60.964  63.736  0.00  0.00    +0.000 C 
ATOM     19  C   UNL     1      60.506  60.598  63.915  0.00  0.00    +0.000 C 
ATOM     20  F   UNL     1      60.158  60.086  63.370  0.00  0.00    +0.000 F 
ATOM     21  C   UNL     1      60.137  60.744  64.637  0.00  0.00    +0.000 C 
ATOM     22  C   UNL     1      60.485  61.257  65.182  0.00  0.00    +0.000 C 
ATOM     23  N   UNL     1      60.252  61.505  65.933  0.00  0.00    +0.000 NA
ATOM     24  C   UNL     1      61.202  61.622  65.004  0.00  0.00    +0.000 C 
ENDROOT
TORSDOF 0
ENDMDL
MODEL 7
REMARK VINA RESULT:   -11.334      2.926      4.527
REMARK INTER + INTRA:         -11.334
REMARK INTER:                 -11.334
REMARK INTRA:                   0.000
REMARK UNBOUND:                 0.000
ROOT
REMARK  Name = rucaparib
REMARK                            x       y       z     vdW  Elec       q    Type
REMARK                         _______ _______ _______ _____ _____    ______ ____
ATOM      1  C   UNL     1      65.747  67.242  70.371  0.00  0.00    +0.000 C 
ATOM      2  N   UNL     1      65.173  66.692  70.151  0.00  0.00    +0.000 NA
ATOM      3  C   UNL     1      64.765  66.266  70.729  0.00  0.00    +0.000 C 
ATOM      4  C   UNL     1      64.192  65.716  70.507  0.00  0.00    +0.000 A 
ATOM      5  C   UNL     1      63.784  65.290  71.085  0.00  0.00    +0.000 A 
ATOM      6  C   UNL     1      63.211  64.740  70.865  0.00  0.00    +0.000 A 
ATOM      7  C   UNL     1      63.044  64.615  70.066  0.00  0.00    +0.000 A 
ATOM      8  C   UNL     1      63.452  65.041  69.488  0.00  0.00    +0.000 A 
ATOM      9  C   UNL     1      64.026  65.591  69.710  0.00  0.00    +0.000 A 
ATOM     10  C   UNL     1      62.471  64.065  69.846  0.00  0.00    +0.000 C 
ATOM     11  C   UNL     1      62.021  63.601  70.358  0.00  0.00    +0.000 C 
ATOM     12  C   UNL     1      62.092  63.632  71.179  0.00  0.00    +0.000 C 
ATOM     13  C   UNL     1      61.678  63.201  71.748  0.00  0.00    +0.000 C 
ATOM     14  N   UNL     1      61.091  62.633  71.636  0.00  0.00    +0.000 NA
ATOM     15  C   UNL     1      60.773  62.354  70.927  0.00  0.00    +0.000 C 
ATOM     16  O   UNL     1      60.186  61.778  70.999  0.00  0.00    +0.000 OA
ATOM     17  C   UNL     1      60.963  62.577  70.156  0.00  0.00    +0.000 C 
ATOM     18  C   UNL     1      60.525  62.178  69.520  0.00  0.00    +0.000 C 
ATOM     19  C   UNL     1      60.665  62.352  68.725  0.00  0.00    +0.000 C 
ATOM     20  F   UNL     1      60.238  61.962  68.137  0.00  0.00    +0.000 F 
ATOM     21  C   UNL     1      61.231  62.915  68.519  0.00  0.00    +0.000 C 
ATOM     22  C   UNL     1      61.658  63.305  69.108  0.00  0.00    +0.000 C 
ATOM     23  N   UNL     1      62.247  63.882  69.073  0.00  0.00    +0.000 NA
ATOM     24  C   UNL     1      61.519  63.132  69.902  0.00  0.00    +0.000 C 
ENDROOT
TORSDOF 0
ENDMDL
MODEL 8
REMARK VINA RESULT:   -11.215      3.271      5.869
REMARK INTER + INTRA:         -11.215
REMARK INTER:                 -11.215
REMARK INTRA:                   0.000
REMARK UNBOUND:                 0.000
ROOT
REMARK  Name = rucaparib
REMARK                            x       y       z     vdW  Elec       q    Type
REMARK                         _______ _______ _______ _____ _____    ______ ____
ATOM      1  C   UNL     1      58.063  67.818  73.197  0.00  0.00    +0.000 C 
ATOM      2  N   UNL     1      58.349  67.170  72.774  0.00  0.00    +0.000 NA
ATOM      3  C   UNL     1      58.857  66.630  73.137  0.00  0.00    +0.000 C 
ATOM      4  C   UNL     1      59.142  65.983  72.712  0.00  0.00    +0.000 A 
ATOM      5  C   UNL     1      59.649  65.443  73.076  0.00  0.00    +0.000 A 
ATOM      6  C   UNL     1      59.935  64.795  72.652  0.00  0.00    +0.000 A 
ATOM      7  C   UNL     1      59.713  64.687  71.864  0.00  0.00    +0.000 A 
ATOM      8  C   UNL     1      59.206  65.228  71.501  0.00  0.00    +0.000 A 
ATOM      9  C   UNL     1      58.921  65.875  71.926  0.00  0.00    +0.000 A 
ATOM     10  C   UNL     1      59.999  64.040  71.441  0.00  0.00    +0.000 C 
ATOM     11  C   UNL     1      60.507  63.457  71.728  0.00  0.00    +0.000 C 
ATOM     12  C   UNL     1      60.801  63.452  72.499  0.00  0.00    +0.000 C 
ATOM     13  C   UNL     1      61.308  62.906  72.852  0.00  0.00    +0.000 C 
ATOM     14  N   UNL     1      61.648  62.230  72.522  0.00  0.00    +0.000 NA
ATOM     15  C   UNL     1      61.564  61.934  71.756  0.00  0.00    +0.000 C 
ATOM     16  O   UNL     1      61.979  61.240  71.592  0.00  0.00    +0.000 OA
ATOM     17  C   UNL     1      61.119  62.241  71.132  0.00  0.00    +0.000 C 
ATOM     18  C   UNL     1      61.143  61.797  70.385  0.00  0.00    +0.000 C 
ATOM     19  C   UNL     1      60.722  62.047  69.721  0.00  0.00    +0.000 C 
ATOM     20  F   UNL     1      60.759  61.611  69.022  0.00  0.00    +0.000 F 
ATOM     21  C   UNL     1      60.265  62.732  69.756  0.00  0.00    +0.000 C 
ATOM     22  C   UNL     1      60.228  63.168  70.456  0.00  0.00    +0.000 C 
ATOM     23  N   UNL     1      59.826  63.861  70.654  0.00  0.00    +0.000 NA
ATOM     24  C   UNL     1      60.648  62.919  71.120  0.00  0.00    +0.000 C 
ENDROOT
TORSDOF 0
ENDMDL
MODEL 9
REMARK VINA RESULT:   -10.981      4.247      5.825
REMARK INTER + INTRA:         -10.981
REMARK INTER:                 -10.981
REMARK INTRA:                   0.000
REMARK UNBOUND:                 0.000
ROOT
REMARK  Name = rucaparib
REMARK                            x       y       z     vdW  Elec       q    Type
REMARK                         _______ _______ _______ _____ _____    ______ ____
ATOM      1  C   UNL     1      60.258  61.630  70.962  0.00  0.00    +0.000 C 
ATOM      2  N   UNL     1      60.854  62.190  70.855  0.00  0.00    +0.000 NA
ATOM      3  C   UNL     1      60.907  62.840  71.360  0.00  0.00    +0.000 C 
ATOM      4  C   UNL     1      61.503  63.399  71.252  0.00  0.00    +0.000 A 
ATOM      5  C   UNL     1      61.556  64.049  71.757  0.00  0.00    +0.000 A 
ATOM      6  C   UNL     1      62.152  64.609  71.650  0.00  0.00    +0.000 A 
ATOM      7  C   UNL     1      62.696  64.519  71.035  0.00  0.00    +0.000 A 
ATOM      8  C   UNL     1      62.644  63.869  70.530  0.00  0.00    +0.000 A 
ATOM      9  C   UNL     1      62.047  63.310  70.639  0.00  0.00    +0.000 A 
ATOM     10  C   UNL     1      63.292  65.078  70.927  0.00  0.00    +0.000 C 
ATOM     11  C   UNL     1      63.414  65.753  71.386  0.00  0.00    +0.000 C 
ATOM     12  C   UNL     1      62.939  65.956  72.029  0.00  0.00    +0.000 C 
ATOM     13  C   UNL     1      63.001  66.610  72.528  0.00  0.00    +0.000 C 
ATOM     14  N   UNL     1      63.554  67.222  72.508  0.00  0.00    +0.000 NA
ATOM     15  C   UNL     1      64.182  67.331  71.983  0.00  0.00    +0.000 C 
ATOM     16  O   UNL     1      64.641  68.005  72.109  0.00  0.00    +0.000 OA
ATOM     17  C   UNL     1      64.410  66.855  71.349  0.00  0.00    +0.000 C 
ATOM     18  C   UNL     1      65.102  67.122  70.896  0.00  0.00    +0.000 C 
ATOM     19  C   UNL     1      65.386  66.695  70.249  0.00  0.00    +0.000 C 
ATOM     20  F   UNL     1      66.044  66.965  69.833  0.00  0.00    +0.000 F 
ATOM     21  C   UNL     1      65.011  65.997  70.020  0.00  0.00    +0.000 C 
ATOM     22  C   UNL     1      64.353  65.726  70.438  0.00  0.00    +0.000 C 
ATOM     23  N   UNL     1      63.873  65.062  70.341  0.00  0.00    +0.000 NA
ATOM     24  C   UNL     1      64.069  66.153  71.083  0.00  0.00    +0.000 C 
ENDROOT
TORSDOF 0
ENDMDL
