MODEL 1
REMARK VINA RESULT:   -10.715      0.000      0.000
REMARK INTER + INTRA:         -10.715
REMARK INTER:                 -10.715
REMARK INTRA:                   0.000
REMARK UNBOUND:                 0.000
ROOT
REMARK  Name = ruxolitinib
REMARK                            x       y       z     vdW  Elec       q    Type
REMARK                         _______ _______ _______ _____ _____    ______ ____
ATOM      1  N   UNL     1      62.374  65.745  73.132  0.00  0.00    +0.000 NA
ATOM      2  C   UNL     1      62.333  65.597  72.321  0.00  0.00    +0.000 C 
ATOM      3  C   UNL     1      62.292  65.449  71.510  0.00  0.00    +0.000 C 
ATOM      4  C   UNL     1      61.934  64.760  71.235  0.00  0.00    +0.000 C 
ATOM      5  C   UNL     1      61.615  64.218  71.769  0.00  0.00    +0.000 C 
ATOM      6  C   UNL     1      61.615  64.290  72.591  0.00  0.00    +0.000 C 
ATOM      7  C   UNL     1      61.241  63.626  72.906  0.00  0.00    +0.000 C 
ATOM      8  C   UNL     1      61.010  63.142  72.279  0.00  0.00    +0.000 C 
ATOM      9  C   UNL     1      61.242  63.508  71.577  0.00  0.00    +0.000 C 
ATOM     10  N   UNL     1      61.892  64.611  70.424  0.00  0.00    +0.000 N 
ATOM     11  C   UNL     1      61.552  63.949  70.068  0.00  0.00    +0.000 A 
ATOM     12  C   UNL     1      61.635  64.029  69.251  0.00  0.00    +0.000 A 
ATOM     13  C   UNL     1      62.025  64.739  69.102  0.00  0.00    +0.000 A 
ATOM     14  N   UNL     1      62.185  65.100  69.827  0.00  0.00    +0.000 NA
ATOM     15  C   UNL     1      61.371  63.491  68.683  0.00  0.00    +0.000 A 
ATOM     16  C   UNL     1      60.987  62.799  68.917  0.00  0.00    +0.000 A 
ATOM     17  C   UNL     1      60.790  62.501  69.661  0.00  0.00    +0.000 A 
ATOM     18  C   UNL     1      60.406  61.779  69.553  0.00  0.00    +0.000 A 
ATOM     19  N   UNL     1      60.365  61.631  68.742  0.00  0.00    +0.000 NA
ATOM     20  C   UNL     1      60.724  62.262  68.349  0.00  0.00    +0.000 A 
ATOM     21  N   UNL     1      60.846  62.416  67.547  0.00  0.00    +0.000 NA
ATOM     22  C   UNL     1      61.230  63.107  67.314  0.00  0.00    +0.000 A 
ATOM     23  N   UNL     1      61.493  63.645  67.882  0.00  0.00    +0.000 NA
ENDROOT
TORSDOF 0
ENDMDL
MODEL 2
REMARK VINA RESULT:   -10.676      2.166      3.443
REMARK INTER + INTRA:         -10.676
REMARK INTER:                 -10.676
REMARK INTRA:                   0.000
REMARK UNBOUND:                 0.000
ROOT
REMARK  Name = ruxolitinib
REMARK                            x       y       z     vdW  Elec       q    Type
REMARK                         _______ _______ _______ _____ _____    ______ ____
ATOM      1  N   UNL     1      61.586  61.170  71.477  0.00  0.00    +0.000 NA
ATOM      2  C   UNL     1      61.296  61.758  70.977  0.00  0.00    +0.000 C 
ATOM      3  C   UNL     1      61.005  62.347  70.477  0.00  0.00    +0.000 C 
ATOM      4  C   UNL     1      60.836  63.096  70.778  0.00  0.00    +0.000 C 
ATOM      5  C   UNL     1      60.957  63.258  71.577  0.00  0.00    +0.000 C 
ATOM      6  C   UNL     1      61.244  62.727  72.142  0.00  0.00    +0.000 C 
ATOM      7  C   UNL     1      61.277  63.119  72.866  0.00  0.00    +0.000 C 
ATOM      8  C   UNL     1      61.012  63.892  72.751  0.00  0.00    +0.000 C 
ATOM      9  C   UNL     1      60.814  63.977  71.955  0.00  0.00    +0.000 C 
ATOM     10  N   UNL     1      60.546  63.685  70.278  0.00  0.00    +0.000 N 
ATOM     11  C   UNL     1      60.353  64.457  70.498  0.00  0.00    +0.000 A 
ATOM     12  C   UNL     1      60.085  64.853  69.826  0.00  0.00    +0.000 A 
ATOM     13  C   UNL     1      60.112  64.328  69.191  0.00  0.00    +0.000 A 
ATOM     14  N   UNL     1      60.397  63.605  69.470  0.00  0.00    +0.000 NA
ATOM     15  C   UNL     1      59.833  65.639  69.795  0.00  0.00    +0.000 A 
ATOM     16  C   UNL     1      59.837  66.100  70.479  0.00  0.00    +0.000 A 
ATOM     17  C   UNL     1      60.056  65.933  71.257  0.00  0.00    +0.000 A 
ATOM     18  C   UNL     1      59.940  66.615  71.707  0.00  0.00    +0.000 A 
ATOM     19  N   UNL     1      59.649  67.204  71.207  0.00  0.00    +0.000 NA
ATOM     20  C   UNL     1      59.586  66.885  70.448  0.00  0.00    +0.000 A 
ATOM     21  N   UNL     1      59.331  67.210  69.733  0.00  0.00    +0.000 NA
ATOM     22  C   UNL     1      59.328  66.748  69.049  0.00  0.00    +0.000 A 
ATOM     23  N   UNL     1      59.579  65.963  69.080  0.00  0.00    +0.000 NA
ENDROOT
TORSDOF 0
ENDMDL
MODEL 3
REMARK VINA RESULT:   -10.624      2.216      4.139
REMARK INTER + INTRA:         -10.624
REMARK INTER:                 -10.624
REMARK INTRA:                   0.000
REMARK UNBOUND:                 0.000
ROOT
REMARK  Name = ruxolitinib
REMARK                            x       y       z     vdW  Elec       q    Type
REMARK                         _______ _______ _______ _____ _____    ______ ____
ATOM      1  N   UNL     1      60.841  61.957  68.160  0.00  0.00    +0.000 NA
ATOM      2  C   UNL     1      60.621  62.725  68.365  0.00  0.00    +0.000 C 
ATOM      3  C   UNL     1      60.402  63.493  68.570  0.00  0.00    +0.000 C 
ATOM      4  C   UNL     1      60.277  63.689  69.361  0.00  0.00    +0.000 C 
ATOM      5  C   UNL     1      60.372  63.118  69.948  0.00  0.00    +0.000 C 
ATOM      6  C   UNL     1      60.589  62.330  69.828  0.00  0.00    +0.000 C 
ATOM      7  C   UNL     1      60.618  61.958  70.563  0.00  0.00    +0.000 C 
ATOM      8  C   UNL     1      60.419  62.515  71.139  0.00  0.00    +0.000 C 
ATOM      9  C   UNL     1      60.267  63.231  70.759  0.00  0.00    +0.000 C 
ATOM     10  N   UNL     1      60.057  64.458  69.566  0.00  0.00    +0.000 N 
ATOM     11  C   UNL     1      59.914  64.734  70.331  0.00  0.00    +0.000 A 
ATOM     12  C   UNL     1      59.711  65.532  70.279  0.00  0.00    +0.000 A 
ATOM     13  C   UNL     1      59.728  65.749  69.484  0.00  0.00    +0.000 A 
ATOM     14  N   UNL     1      59.942  65.085  69.043  0.00  0.00    +0.000 NA
ATOM     15  C   UNL     1      59.523  66.026  70.913  0.00  0.00    +0.000 A 
ATOM     16  C   UNL     1      59.529  65.729  71.683  0.00  0.00    +0.000 A 
ATOM     17  C   UNL     1      59.697  64.980  71.985  0.00  0.00    +0.000 A 
ATOM     18  C   UNL     1      59.613  65.011  72.805  0.00  0.00    +0.000 A 
ATOM     19  N   UNL     1      59.393  65.779  73.010  0.00  0.00    +0.000 NA
ATOM     20  C   UNL     1      59.341  66.223  72.316  0.00  0.00    +0.000 A 
ATOM     21  N   UNL     1      59.147  67.014  72.180  0.00  0.00    +0.000 NA
ATOM     22  C   UNL     1      59.141  67.310  71.410  0.00  0.00    +0.000 A 
ATOM     23  N   UNL     1      59.329  66.816  70.776  0.00  0.00    +0.000 NA
ENDROOT
TORSDOF 0
ENDMDL
MODEL 4
REMARK VINA RESULT:   -10.517      2.426      5.639
REMARK INTER + INTRA:         -10.517
REMARK INTER:                 -10.517
REMARK INTRA:                   0.000
REMARK UNBOUND:                 0.000
ROOT
REMARK  Name = ruxolitinib
REMARK                            x       y       z     vdW  Elec       q    Type
REMARK                         _______ _______ _______ _____ _____    ______ ____
ATOM      1  N   UNL     1      60.811  60.710  63.596  0.00  0.00    +0.000 NA
ATOM      2  C   UNL     1      60.488  61.016  64.290  0.00  0.00    +0.000 C 
ATOM      3  C   UNL     1      60.165  61.323  64.985  0.00  0.00    +0.000 C 
ATOM      4  C   UNL     1      60.632  61.775  65.492  0.00  0.00    +0.000 C 
ATOM      5  C   UNL     1      61.422  61.921  65.307  0.00  0.00    +0.000 C 
ATOM      6  C   UNL     1      61.820  61.653  64.635  0.00  0.00    +0.000 C 
ATOM      7  C   UNL     1      62.597  61.927  64.672  0.00  0.00    +0.000 C 
ATOM      8  C   UNL     1      62.680  62.365  65.367  0.00  0.00    +0.000 C 
ATOM      9  C   UNL     1      61.954  62.361  65.758  0.00  0.00    +0.000 C 
ATOM     10  N   UNL     1      60.308  62.081  66.187  0.00  0.00    +0.000 N 
ATOM     11  C   UNL     1      60.706  62.541  66.746  0.00  0.00    +0.000 A 
ATOM     12  C   UNL     1      60.173  62.725  67.349  0.00  0.00    +0.000 A 
ATOM     13  C   UNL     1      59.448  62.380  67.164  0.00  0.00    +0.000 A 
ATOM     14  N   UNL     1      59.531  61.982  66.445  0.00  0.00    +0.000 NA
ATOM     15  C   UNL     1      60.339  63.176  68.020  0.00  0.00    +0.000 A 
ATOM     16  C   UNL     1      61.095  63.487  68.132  0.00  0.00    +0.000 A 
ATOM     17  C   UNL     1      61.783  63.443  67.679  0.00  0.00    +0.000 A 
ATOM     18  C   UNL     1      62.374  63.865  68.070  0.00  0.00    +0.000 A 
ATOM     19  N   UNL     1      62.050  64.172  68.765  0.00  0.00    +0.000 NA
ATOM     20  C   UNL     1      61.260  63.938  68.803  0.00  0.00    +0.000 A 
ATOM     21  N   UNL     1      60.669  64.077  69.362  0.00  0.00    +0.000 NA
ATOM     22  C   UNL     1      59.913  63.766  69.250  0.00  0.00    +0.000 A 
ATOM     23  N   UNL     1      59.748  63.315  68.579  0.00  0.00    +0.000 NA
ENDROOT
TORSDOF 0
ENDMDL
MODEL 5
REMARK VINA RESULT:   -10.508      2.192      3.715
REMARK INTER + INTRA:         -10.508
REMARK INTER:                 -10.508
REMARK INTRA:                   0.000
REMARK UNBOUND:                 0.000
ROOT
REMARK  Name = ruxolitinib
REMARK                            x       y       z     vdW  Elec       q    Type
REMARK                         _______ _______ _______ _____ _____    ______ ____
ATOM      1  N   UNL     1      65.991  67.491  69.922  0.00  0.00    +0.000 NA
ATOM      2  C   UNL     1      65.507  66.826  69.859  0.00  0.00    +0.000 C 
ATOM      3  C   UNL     1      65.022  66.161  69.796  0.00  0.00    +0.000 C 
ATOM      4  C   UNL     1      64.458  66.006  70.377  0.00  0.00    +0.000 C 
ATOM      5  C   UNL     1      64.378  66.514  71.022  0.00  0.00    +0.000 C 
ATOM      6  C   UNL     1      64.821  67.197  71.160  0.00  0.00    +0.000 C 
ATOM      7  C   UNL     1      64.559  67.534  71.864  0.00  0.00    +0.000 C 
ATOM      8  C   UNL     1      63.953  67.060  72.164  0.00  0.00    +0.000 C 
ATOM      9  C   UNL     1      63.842  66.430  71.643  0.00  0.00    +0.000 C 
ATOM     10  N   UNL     1      63.974  65.341  70.314  0.00  0.00    +0.000 N 
ATOM     11  C   UNL     1      63.388  65.114  70.850  0.00  0.00    +0.000 A 
ATOM     12  C   UNL     1      63.043  64.419  70.571  0.00  0.00    +0.000 A 
ATOM     13  C   UNL     1      63.414  64.216  69.863  0.00  0.00    +0.000 A 
ATOM     14  N   UNL     1      63.990  64.785  69.705  0.00  0.00    +0.000 NA
ATOM     15  C   UNL     1      62.432  64.000  70.936  0.00  0.00    +0.000 A 
ATOM     16  C   UNL     1      62.113  64.273  71.647  0.00  0.00    +0.000 A 
ATOM     17  C   UNL     1      62.287  64.931  72.114  0.00  0.00    +0.000 A 
ATOM     18  C   UNL     1      61.784  64.919  72.768  0.00  0.00    +0.000 A 
ATOM     19  N   UNL     1      61.299  64.254  72.705  0.00  0.00    +0.000 NA
ATOM     20  C   UNL     1      61.503  63.855  72.012  0.00  0.00    +0.000 A 
ATOM     21  N   UNL     1      61.211  63.164  71.666  0.00  0.00    +0.000 NA
ATOM     22  C   UNL     1      61.530  62.893  70.956  0.00  0.00    +0.000 A 
ATOM     23  N   UNL     1      62.141  63.311  70.591  0.00  0.00    +0.000 NA
ENDROOT
TORSDOF 0
ENDMDL
MODEL 6
REMARK VINA RESULT:   -10.402      0.752      3.906
REMARK INTER + INTRA:         -10.402
REMARK INTER:                 -10.402
REMARK INTRA:                   0.000
REMARK UNBOUND:                 0.000
ROOT
REMARK  Name = ruxolitinib
REMARK                            x       y       z     vdW  Elec       q    Type
REMARK                         _______ _______ _______ _____ _____    ______ ____
ATOM      1  N   UNL     1      60.773  62.385  66.835  0.00  0.00    +0.000 NA
ATOM      2  C   UNL     1      61.061  62.944  67.368  0.00  0.00    +0.000 C 
ATOM      3  C   UNL     1      61.349  63.503  67.903  0.00  0.00    +0.000 C 
ATOM      4  C   UNL     1      61.272  63.376  68.714  0.00  0.00    +0.000 C 
ATOM      5  C   UNL     1      60.908  62.691  68.992  0.00  0.00    +0.000 C 
ATOM      6  C   UNL     1      60.594  62.085  68.527  0.00  0.00    +0.000 C 
ATOM      7  C   UNL     1      60.285  61.510  69.030  0.00  0.00    +0.000 C 
ATOM      8  C   UNL     1      60.407  61.759  69.808  0.00  0.00    +0.000 C 
ATOM      9  C   UNL     1      60.791  62.489  69.783  0.00  0.00    +0.000 C 
ATOM     10  N   UNL     1      61.560  63.935  69.248  0.00  0.00    +0.000 N 
ATOM     11  C   UNL     1      61.523  63.884  70.071  0.00  0.00    +0.000 A 
ATOM     12  C   UNL     1      61.876  64.561  70.384  0.00  0.00    +0.000 A 
ATOM     13  C   UNL     1      62.131  65.030  69.756  0.00  0.00    +0.000 A 
ATOM     14  N   UNL     1      61.936  64.643  69.053  0.00  0.00    +0.000 NA
ATOM     15  C   UNL     1      61.959  64.738  71.186  0.00  0.00    +0.000 A 
ATOM     16  C   UNL     1      61.675  64.212  71.756  0.00  0.00    +0.000 A 
ATOM     17  C   UNL     1      61.292  63.484  71.693  0.00  0.00    +0.000 A 
ATOM     18  C   UNL     1      61.139  63.210  72.456  0.00  0.00    +0.000 A 
ATOM     19  N   UNL     1      61.427  63.769  72.990  0.00  0.00    +0.000 NA
ATOM     20  C   UNL     1      61.759  64.389  72.557  0.00  0.00    +0.000 A 
ATOM     21  N   UNL     1      62.126  65.091  72.789  0.00  0.00    +0.000 NA
ATOM     22  C   UNL     1      62.409  65.615  72.220  0.00  0.00    +0.000 A 
ATOM     23  N   UNL     1      62.326  65.439  71.418  0.00  0.00    +0.000 NA
ENDROOT
TORSDOF 0
ENDMDL
MODEL 7
REMARK VINA RESULT:   -10.398      1.606      3.806
REMARK INTER + INTRA:         -10.398
REMARK INTER:                 -10.398
REMARK INTRA:                   0.000
REMARK UNBOUND:                 0.000
ROOT
REMARK  Name = ruxolitinib
REMARK                            x       y       z     vdW  Elec       q    Type
REMARK                         _______ _______ _______ _____ _____    ______ ____
ATOM      1  N   UNL     1      60.238  61.886  70.966  0.00  0.00    +0.000 NA
ATOM      2  C   UNL     1      60.807  62.363  70.607  0.00  0.00    +0.000 C 
ATOM      3  C   UNL     1      61.377  62.841  70.248  0.00  0.00    +0.000 C 
ATOM      4  C   UNL     1      61.714  63.465  70.667  0.00  0.00    +0.000 C 
ATOM      5  C   UNL     1      61.484  63.614  71.444  0.00  0.00    +0.000 C 
ATOM      6  C   UNL     1      60.924  63.186  71.875  0.00  0.00    +0.000 C 
ATOM      7  C   UNL     1      60.867  63.523  72.625  0.00  0.00    +0.000 C 
ATOM      8  C   UNL     1      61.391  64.160  72.659  0.00  0.00    +0.000 C 
ATOM      9  C   UNL     1      61.772  64.215  71.930  0.00  0.00    +0.000 C 
ATOM     10  N   UNL     1      62.284  63.943  70.307  0.00  0.00    +0.000 N 
ATOM     11  C   UNL     1      62.669  64.585  70.655  0.00  0.00    +0.000 A 
ATOM     12  C   UNL     1      63.190  64.900  70.099  0.00  0.00    +0.000 A 
ATOM     13  C   UNL     1      63.129  64.454  69.409  0.00  0.00    +0.000 A 
ATOM     14  N   UNL     1      62.568  63.862  69.537  0.00  0.00    +0.000 NA
ATOM     15  C   UNL     1      63.688  65.549  70.215  0.00  0.00    +0.000 A 
ATOM     16  C   UNL     1      63.690  65.943  70.940  0.00  0.00    +0.000 A 
ATOM     17  C   UNL     1      63.265  65.819  71.637  0.00  0.00    +0.000 A 
ATOM     18  C   UNL     1      63.500  66.391  72.184  0.00  0.00    +0.000 A 
ATOM     19  N   UNL     1      64.070  66.868  71.824  0.00  0.00    +0.000 NA
ATOM     20  C   UNL     1      64.186  66.591  71.056  0.00  0.00    +0.000 A 
ATOM     21  N   UNL     1      64.682  66.846  70.446  0.00  0.00    +0.000 NA
ATOM     22  C   UNL     1      64.679  66.451  69.722  0.00  0.00    +0.000 A 
ATOM     23  N   UNL     1      64.182  65.803  69.606  0.00  0.00    +0.000 NA
ENDROOT
TORSDOF 0
ENDMDL
MODEL 8
REMARK VINA RESULT:   -10.335      2.100      2.226
REMARK INTER + INTRA:         -10.335
REMARK INTER:                 -10.335
REMARK INTRA:                   0.000
REMARK UNBOUND:                 0.000
ROOT
REMARK  Name = ruxolitinib
REMARK                            x       y       z     vdW  Elec       q    Type
REMARK                         _______ _______ _______ _____ _____    ______ ____
ATOM      1  N   UNL     1      59.186  67.765  71.502  0.00  0.00    +0.000 NA
ATOM      2  C   UNL     1      59.378  67.207  70.926  0.00  0.00    +0.000 C 
ATOM      3  C   UNL     1      59.571  66.648  70.350  0.00  0.00    +0.000 C 
ATOM      4  C   UNL     1      59.713  65.865  70.567  0.00  0.00    +0.000 C 
ATOM      5  C   UNL     1      59.664  65.640  71.359  0.00  0.00    +0.000 C 
ATOM      6  C   UNL     1      59.478  66.135  71.994  0.00  0.00    +0.000 C 
ATOM      7  C   UNL     1      59.491  65.683  72.683  0.00  0.00    +0.000 C 
ATOM      8  C   UNL     1      59.684  64.907  72.475  0.00  0.00    +0.000 C 
ATOM      9  C   UNL     1      59.791  64.882  71.658  0.00  0.00    +0.000 C 
ATOM     10  N   UNL     1      59.905  65.306  69.992  0.00  0.00    +0.000 N 
ATOM     11  C   UNL     1      60.062  64.506  70.125  0.00  0.00    +0.000 A 
ATOM     12  C   UNL     1      60.228  64.156  69.397  0.00  0.00    +0.000 A 
ATOM     13  C   UNL     1      60.174  64.736  68.814  0.00  0.00    +0.000 A 
ATOM     14  N   UNL     1      59.975  65.448  69.182  0.00  0.00    +0.000 NA
ATOM     15  C   UNL     1      60.415  63.361  69.273  0.00  0.00    +0.000 A 
ATOM     16  C   UNL     1      60.449  62.841  69.913  0.00  0.00    +0.000 A 
ATOM     17  C   UNL     1      60.325  62.951  70.722  0.00  0.00    +0.000 A 
ATOM     18  C   UNL     1      60.435  62.226  71.098  0.00  0.00    +0.000 A 
ATOM     19  N   UNL     1      60.628  61.667  70.522  0.00  0.00    +0.000 NA
ATOM     20  C   UNL     1      60.636  62.047  69.790  0.00  0.00    +0.000 A 
ATOM     21  N   UNL     1      60.790  61.773  69.027  0.00  0.00    +0.000 NA
ATOM     22  C   UNL     1      60.756  62.293  68.387  0.00  0.00    +0.000 A 
ATOM     23  N   UNL     1      60.569  63.087  68.511  0.00  0.00    +0.000 NA
ENDROOT
TORSDOF 0
ENDMDL
MODEL 9
REMARK VINA RESULT:   -10.216      2.063      3.864
REMARK INTER + INTRA:         -10.216
REMARK INTER:                 -10.216
REMARK INTRA:                   0.000
REMARK UNBOUND:                 0.000
ROOT
REMARK  Name = ruxolitinib
REMARK                            x       y       z     vdW  Elec       q    Type
REMARK                         _______ _______ _______ _____ _____    ______ ____
ATOM      1  N   UNL     1      65.869  67.632  70.900  0.00  0.00    +0.000 NA
ATOM      2  C   UNL     1      65.207  67.377  71.319  0.00  0.00    +0.000 C 
ATOM      3  C   UNL     1      64.544  67.120  71.739  0.00  0.00    +0.000 C 
ATOM      4  C   UNL     1      64.103  66.481  71.463  0.00  0.00    +0.000 C 
ATOM      5  C   UNL     1      64.324  66.096  70.767  0.00  0.00    +0.000 C 
ATOM      6  C   UNL     1      64.970  66.288  70.291  0.00  0.00    +0.000 C 
ATOM      7  C   UNL     1      64.984  65.763  69.655  0.00  0.00    +0.000 C 
ATOM      8  C   UNL     1      64.346  65.245  69.738  0.00  0.00    +0.000 C 
ATOM      9  C   UNL     1      63.939  65.451  70.425  0.00  0.00    +0.000 C 
ATOM     10  N   UNL     1      63.440  66.224  71.882  0.00  0.00    +0.000 N 
ATOM     11  C   UNL     1      62.948  65.595  71.675  0.00  0.00    +0.000 A 
ATOM     12  C   UNL     1      62.357  65.536  72.248  0.00  0.00    +0.000 A 
ATOM     13  C   UNL     1      62.483  66.126  72.809  0.00  0.00    +0.000 A 
ATOM     14  N   UNL     1      63.153  66.553  72.583  0.00  0.00    +0.000 NA
ATOM     15  C   UNL     1      61.746  64.980  72.258  0.00  0.00    +0.000 A 
ATOM     16  C   UNL     1      61.689  64.419  71.656  0.00  0.00    +0.000 A 
ATOM     17  C   UNL     1      62.151  64.278  70.986  0.00  0.00    +0.000 A 
ATOM     18  C   UNL     1      61.826  63.637  70.582  0.00  0.00    +0.000 A 
ATOM     19  N   UNL     1      61.163  63.380  71.002  0.00  0.00    +0.000 NA
ATOM     20  C   UNL     1      61.079  63.864  71.665  0.00  0.00    +0.000 A 
ATOM     21  N   UNL     1      60.524  63.871  72.277  0.00  0.00    +0.000 NA
ATOM     22  C   UNL     1      60.582  64.433  72.879  0.00  0.00    +0.000 A 
ATOM     23  N   UNL     1      61.192  64.987  72.869  0.00  0.00    +0.000 NA
ENDROOT
TORSDOF 0
ENDMDL
