MODEL 1
REMARK VINA RESULT:   -14.285      0.000      0.000
REMARK INTER + INTRA:         -14.285
REMARK INTER:                 -14.285
REMARK INTRA:                   0.000
REMARK UNBOUND:                 0.000
ROOT
REMARK  Name = salazosulfadimidine
REMARK                            x       y       z     vdW  Elec       q    Type
REMARK                         _______ _______ _______ _____ _____    ______ ____
ATOM      1  C   UNL     1      62.631  65.437  71.065  0.00  0.00    +0.000 C 
ATOM      2  C   UNL     1      61.960  65.060  71.362  0.00  0.00    +0.000 A 
ATOM      3  C   UNL     1      61.705  65.215  72.131  0.00  0.00    +0.000 A 
ATOM      4  C   UNL     1      61.034  64.838  72.428  0.00  0.00    +0.000 A 
ATOM      5  C   UNL     1      60.779  64.995  73.197  0.00  0.00    +0.000 C 
ATOM      6  N   UNL     1      60.618  64.305  71.956  0.00  0.00    +0.000 NA
ATOM      7  C   UNL     1      60.872  64.148  71.187  0.00  0.00    +0.000 A 
ATOM      8  N   UNL     1      60.456  63.615  70.715  0.00  0.00    +0.000 NA
ATOM      9  S   UNL     1      60.711  63.459  69.946  0.00  0.00    +0.000 S 
ATOM     10  O   UNL     1      61.339  63.985  70.047  0.00  0.00    +0.000 OA
ATOM     11  O   UNL     1      60.084  62.933  69.845  0.00  0.00    +0.000 OA
ATOM     12  C   UNL     1      60.966  63.303  69.177  0.00  0.00    +0.000 A 
ATOM     13  C   UNL     1      60.549  62.769  68.704  0.00  0.00    +0.000 A 
ATOM     14  C   UNL     1      60.804  62.613  67.936  0.00  0.00    +0.000 A 
ATOM     15  C   UNL     1      61.475  62.991  67.639  0.00  0.00    +0.000 A 
ATOM     16  C   UNL     1      61.892  63.524  68.110  0.00  0.00    +0.000 A 
ATOM     17  C   UNL     1      61.637  63.680  68.880  0.00  0.00    +0.000 A 
ATOM     18  N   UNL     1      61.730  62.835  66.870  0.00  0.00    +0.000 NA
ATOM     19  N   UNL     1      61.314  62.301  66.398  0.00  0.00    +0.000 NA
ATOM     20  C   UNL     1      61.569  62.145  65.629  0.00  0.00    +0.000 A 
ATOM     21  C   UNL     1      61.152  61.611  65.157  0.00  0.00    +0.000 A 
ATOM     22  C   UNL     1      61.407  61.455  64.388  0.00  0.00    +0.000 A 
ATOM     23  C   UNL     1      60.991  60.921  63.915  0.00  0.00    +0.000 C 
ATOM     24  O   UNL     1      60.320  60.544  64.212  0.00  0.00    +0.000 OA
ATOM     25  O   UNL     1      61.246  60.766  63.147  0.00  0.00    +0.000 OA
ATOM     26  C   UNL     1      62.078  61.833  64.091  0.00  0.00    +0.000 A 
ATOM     27  O   UNL     1      62.333  61.676  63.322  0.00  0.00    +0.000 OA
ATOM     28  C   UNL     1      62.494  62.366  64.563  0.00  0.00    +0.000 A 
ATOM     29  C   UNL     1      62.240  62.522  65.332  0.00  0.00    +0.000 A 
ATOM     30  N   UNL     1      61.543  64.526  70.890  0.00  0.00    +0.000 NA
ENDROOT
TORSDOF 0
ENDMDL
MODEL 2
REMARK VINA RESULT:   -13.642      1.694      6.675
REMARK INTER + INTRA:         -13.642
REMARK INTER:                 -13.642
REMARK INTRA:                   0.000
REMARK UNBOUND:                 0.000
ROOT
REMARK  Name = salazosulfadimidine
REMARK                            x       y       z     vdW  Elec       q    Type
REMARK                         _______ _______ _______ _____ _____    ______ ____
ATOM      1  C   UNL     1      62.751  62.356  64.977  0.00  0.00    +0.000 C 
ATOM      2  C   UNL     1      62.005  62.015  64.888  0.00  0.00    +0.000 A 
ATOM      3  C   UNL     1      61.825  61.587  64.206  0.00  0.00    +0.000 A 
ATOM      4  C   UNL     1      61.079  61.246  64.117  0.00  0.00    +0.000 A 
ATOM      5  C   UNL     1      60.901  60.818  63.434  0.00  0.00    +0.000 C 
ATOM      6  N   UNL     1      60.513  61.333  64.709  0.00  0.00    +0.000 NA
ATOM      7  C   UNL     1      60.692  61.761  65.392  0.00  0.00    +0.000 A 
ATOM      8  N   UNL     1      60.125  61.848  65.985  0.00  0.00    +0.000 NA
ATOM      9  S   UNL     1      60.304  62.276  66.666  0.00  0.00    +0.000 S 
ATOM     10  O   UNL     1      61.062  62.423  66.376  0.00  0.00    +0.000 OA
ATOM     11  O   UNL     1      59.546  62.130  66.958  0.00  0.00    +0.000 OA
ATOM     12  C   UNL     1      60.483  62.704  67.349  0.00  0.00    +0.000 A 
ATOM     13  C   UNL     1      59.916  62.791  67.943  0.00  0.00    +0.000 A 
ATOM     14  C   UNL     1      60.095  63.219  68.624  0.00  0.00    +0.000 A 
ATOM     15  C   UNL     1      60.841  63.560  68.714  0.00  0.00    +0.000 A 
ATOM     16  C   UNL     1      61.408  63.473  68.121  0.00  0.00    +0.000 A 
ATOM     17  C   UNL     1      61.229  63.045  67.438  0.00  0.00    +0.000 A 
ATOM     18  N   UNL     1      61.021  63.988  69.396  0.00  0.00    +0.000 NA
ATOM     19  N   UNL     1      60.453  64.075  69.989  0.00  0.00    +0.000 NA
ATOM     20  C   UNL     1      60.633  64.503  70.671  0.00  0.00    +0.000 A 
ATOM     21  C   UNL     1      60.065  64.590  71.264  0.00  0.00    +0.000 A 
ATOM     22  C   UNL     1      60.245  65.018  71.946  0.00  0.00    +0.000 A 
ATOM     23  C   UNL     1      59.677  65.105  72.540  0.00  0.00    +0.000 C 
ATOM     24  O   UNL     1      58.931  64.764  72.450  0.00  0.00    +0.000 OA
ATOM     25  O   UNL     1      59.857  65.533  73.221  0.00  0.00    +0.000 OA
ATOM     26  C   UNL     1      60.991  65.359  72.035  0.00  0.00    +0.000 A 
ATOM     27  O   UNL     1      61.169  65.787  72.718  0.00  0.00    +0.000 OA
ATOM     28  C   UNL     1      61.557  65.272  71.443  0.00  0.00    +0.000 A 
ATOM     29  C   UNL     1      61.379  64.844  70.760  0.00  0.00    +0.000 A 
ATOM     30  N   UNL     1      61.437  62.102  65.481  0.00  0.00    +0.000 NA
ENDROOT
TORSDOF 0
ENDMDL
