MODEL 1
REMARK VINA RESULT:    -9.404      0.000      0.000
REMARK INTER + INTRA:          -9.404
REMARK INTER:                  -9.404
REMARK INTRA:                   0.000
REMARK UNBOUND:                 0.000
ROOT
REMARK  Name = salbutamol
REMARK                            x       y       z     vdW  Elec       q    Type
REMARK                         _______ _______ _______ _____ _____    ______ ____
ATOM      1  C   UNL     1      60.258  62.744  68.797  0.00  0.00    +0.000 C 
ATOM      2  C   UNL     1      60.777  62.764  68.156  0.00  0.00    +0.000 C 
ATOM      3  C   UNL     1      60.262  62.288  67.722  0.00  0.00    +0.000 C 
ATOM      4  C   UNL     1      61.292  63.242  68.590  0.00  0.00    +0.000 C 
ATOM      5  N   UNL     1      61.297  62.786  67.516  0.00  0.00    +0.000 NA
ATOM      6  C   UNL     1      61.111  62.384  66.820  0.00  0.00    +0.000 C 
ATOM      7  C   UNL     1      61.631  62.404  66.179  0.00  0.00    +0.000 C 
ATOM      8  O   UNL     1      62.337  62.828  66.235  0.00  0.00    +0.000 OA
ATOM      9  C   UNL     1      61.445  62.003  65.484  0.00  0.00    +0.000 A 
ATOM     10  C   UNL     1      61.964  62.023  64.843  0.00  0.00    +0.000 A 
ATOM     11  C   UNL     1      61.778  61.621  64.148  0.00  0.00    +0.000 A 
ATOM     12  C   UNL     1      62.297  61.642  63.508  0.00  0.00    +0.000 C 
ATOM     13  O   UNL     1      63.004  62.065  63.563  0.00  0.00    +0.000 OA
ATOM     14  C   UNL     1      61.072  61.198  64.093  0.00  0.00    +0.000 A 
ATOM     15  O   UNL     1      60.886  60.795  63.396  0.00  0.00    +0.000 OA
ATOM     16  C   UNL     1      60.552  61.177  64.733  0.00  0.00    +0.000 A 
ATOM     17  C   UNL     1      60.738  61.579  65.428  0.00  0.00    +0.000 A 
ENDROOT
TORSDOF 0
ENDMDL
MODEL 2
REMARK VINA RESULT:    -9.004      1.360      3.909
REMARK INTER + INTRA:          -9.004
REMARK INTER:                  -9.004
REMARK INTRA:                   0.000
REMARK UNBOUND:                 0.000
ROOT
REMARK  Name = salbutamol
REMARK                            x       y       z     vdW  Elec       q    Type
REMARK                         _______ _______ _______ _____ _____    ______ ____
ATOM      1  C   UNL     1      60.866  60.952  63.830  0.00  0.00    +0.000 C 
ATOM      2  C   UNL     1      61.230  61.411  64.411  0.00  0.00    +0.000 C 
ATOM      3  C   UNL     1      60.599  61.265  64.922  0.00  0.00    +0.000 C 
ATOM      4  C   UNL     1      61.862  61.556  63.901  0.00  0.00    +0.000 C 
ATOM      5  N   UNL     1      61.594  61.869  64.992  0.00  0.00    +0.000 NA
ATOM      6  C   UNL     1      61.230  61.973  65.725  0.00  0.00    +0.000 C 
ATOM      7  C   UNL     1      61.594  62.432  66.307  0.00  0.00    +0.000 C 
ATOM      8  O   UNL     1      62.323  62.787  66.155  0.00  0.00    +0.000 OA
ATOM      9  C   UNL     1      61.229  62.535  67.039  0.00  0.00    +0.000 A 
ATOM     10  C   UNL     1      61.593  62.993  67.620  0.00  0.00    +0.000 A 
ATOM     11  C   UNL     1      61.228  63.096  68.353  0.00  0.00    +0.000 A 
ATOM     12  C   UNL     1      61.592  63.554  68.933  0.00  0.00    +0.000 C 
ATOM     13  O   UNL     1      62.321  63.910  68.782  0.00  0.00    +0.000 OA
ATOM     14  C   UNL     1      60.500  62.741  68.504  0.00  0.00    +0.000 A 
ATOM     15  O   UNL     1      60.135  62.844  69.238  0.00  0.00    +0.000 OA
ATOM     16  C   UNL     1      60.135  62.282  67.923  0.00  0.00    +0.000 A 
ATOM     17  C   UNL     1      60.500  62.179  67.190  0.00  0.00    +0.000 A 
ENDROOT
TORSDOF 0
ENDMDL
MODEL 3
REMARK VINA RESULT:    -8.951      1.992      4.541
REMARK INTER + INTRA:          -8.951
REMARK INTER:                  -8.951
REMARK INTRA:                   0.000
REMARK UNBOUND:                 0.000
ROOT
REMARK  Name = salbutamol
REMARK                            x       y       z     vdW  Elec       q    Type
REMARK                         _______ _______ _______ _____ _____    ______ ____
ATOM      1  C   UNL     1      61.852  61.589  65.217  0.00  0.00    +0.000 C 
ATOM      2  C   UNL     1      61.711  62.132  65.821  0.00  0.00    +0.000 C 
ATOM      3  C   UNL     1      61.493  61.517  66.325  0.00  0.00    +0.000 C 
ATOM      4  C   UNL     1      61.928  62.749  65.317  0.00  0.00    +0.000 C 
ATOM      5  N   UNL     1      61.569  62.677  66.425  0.00  0.00    +0.000 NA
ATOM      6  C   UNL     1      61.310  62.415  67.163  0.00  0.00    +0.000 C 
ATOM      7  C   UNL     1      61.169  62.959  67.768  0.00  0.00    +0.000 C 
ATOM      8  O   UNL     1      61.287  63.765  67.633  0.00  0.00    +0.000 OA
ATOM      9  C   UNL     1      60.910  62.698  68.505  0.00  0.00    +0.000 A 
ATOM     10  C   UNL     1      60.769  63.241  69.110  0.00  0.00    +0.000 A 
ATOM     11  C   UNL     1      60.510  62.980  69.848  0.00  0.00    +0.000 A 
ATOM     12  C   UNL     1      60.369  63.523  70.452  0.00  0.00    +0.000 C 
ATOM     13  O   UNL     1      60.487  64.329  70.318  0.00  0.00    +0.000 OA
ATOM     14  C   UNL     1      60.392  62.175  69.982  0.00  0.00    +0.000 A 
ATOM     15  O   UNL     1      60.133  61.913  70.721  0.00  0.00    +0.000 OA
ATOM     16  C   UNL     1      60.533  61.630  69.378  0.00  0.00    +0.000 A 
ATOM     17  C   UNL     1      60.792  61.892  68.640  0.00  0.00    +0.000 A 
ENDROOT
TORSDOF 0
ENDMDL
MODEL 4
REMARK VINA RESULT:    -8.494      3.625      6.209
REMARK INTER + INTRA:          -8.494
REMARK INTER:                  -8.494
REMARK INTRA:                   0.000
REMARK UNBOUND:                 0.000
ROOT
REMARK  Name = salbutamol
REMARK                            x       y       z     vdW  Elec       q    Type
REMARK                         _______ _______ _______ _____ _____    ______ ____
ATOM      1  C   UNL     1      60.256  61.988  67.596  0.00  0.00    +0.000 C 
ATOM      2  C   UNL     1      60.262  62.506  68.238  0.00  0.00    +0.000 C 
ATOM      3  C   UNL     1      60.613  61.924  68.705  0.00  0.00    +0.000 C 
ATOM      4  C   UNL     1      59.911  63.089  67.770  0.00  0.00    +0.000 C 
ATOM      5  N   UNL     1      60.268  63.025  68.879  0.00  0.00    +0.000 NA
ATOM      6  C   UNL     1      60.575  62.780  69.605  0.00  0.00    +0.000 C 
ATOM      7  C   UNL     1      60.581  63.299  70.247  0.00  0.00    +0.000 C 
ATOM      8  O   UNL     1      60.279  64.062  70.163  0.00  0.00    +0.000 OA
ATOM      9  C   UNL     1      60.887  63.054  70.972  0.00  0.00    +0.000 A 
ATOM     10  C   UNL     1      60.893  63.572  71.614  0.00  0.00    +0.000 A 
ATOM     11  C   UNL     1      61.200  63.327  72.339  0.00  0.00    +0.000 A 
ATOM     12  C   UNL     1      61.206  63.845  72.980  0.00  0.00    +0.000 C 
ATOM     13  O   UNL     1      60.905  64.609  72.897  0.00  0.00    +0.000 OA
ATOM     14  C   UNL     1      61.501  62.564  72.423  0.00  0.00    +0.000 A 
ATOM     15  O   UNL     1      61.809  62.319  73.149  0.00  0.00    +0.000 OA
ATOM     16  C   UNL     1      61.496  62.045  71.781  0.00  0.00    +0.000 A 
ATOM     17  C   UNL     1      61.189  62.290  71.056  0.00  0.00    +0.000 A 
ENDROOT
TORSDOF 0
ENDMDL
MODEL 5
REMARK VINA RESULT:    -8.301      5.491      7.161
REMARK INTER + INTRA:          -8.301
REMARK INTER:                  -8.301
REMARK INTRA:                   0.000
REMARK UNBOUND:                 0.000
ROOT
REMARK  Name = salbutamol
REMARK                            x       y       z     vdW  Elec       q    Type
REMARK                         _______ _______ _______ _____ _____    ______ ____
ATOM      1  C   UNL     1      66.046  67.447  69.859  0.00  0.00    +0.000 C 
ATOM      2  C   UNL     1      65.510  67.111  70.388  0.00  0.00    +0.000 C 
ATOM      3  C   UNL     1      65.268  66.579  69.807  0.00  0.00    +0.000 C 
ATOM      4  C   UNL     1      65.753  67.643  70.971  0.00  0.00    +0.000 C 
ATOM      5  N   UNL     1      64.975  66.776  70.919  0.00  0.00    +0.000 NA
ATOM      6  C   UNL     1      64.497  66.147  70.680  0.00  0.00    +0.000 C 
ATOM      7  C   UNL     1      63.960  65.811  71.210  0.00  0.00    +0.000 C 
ATOM      8  O   UNL     1      63.903  66.104  71.979  0.00  0.00    +0.000 OA
ATOM      9  C   UNL     1      63.483  65.183  70.971  0.00  0.00    +0.000 A 
ATOM     10  C   UNL     1      62.947  64.847  71.500  0.00  0.00    +0.000 A 
ATOM     11  C   UNL     1      62.470  64.218  71.261  0.00  0.00    +0.000 A 
ATOM     12  C   UNL     1      61.934  63.883  71.791  0.00  0.00    +0.000 C 
ATOM     13  O   UNL     1      61.876  64.175  72.560  0.00  0.00    +0.000 OA
ATOM     14  C   UNL     1      62.528  63.926  70.493  0.00  0.00    +0.000 A 
ATOM     15  O   UNL     1      62.049  63.296  70.253  0.00  0.00    +0.000 OA
ATOM     16  C   UNL     1      63.063  64.261  69.962  0.00  0.00    +0.000 A 
ATOM     17  C   UNL     1      63.541  64.890  70.201  0.00  0.00    +0.000 A 
ENDROOT
TORSDOF 0
ENDMDL
MODEL 6
REMARK VINA RESULT:    -8.114      1.795      2.926
REMARK INTER + INTRA:          -8.114
REMARK INTER:                  -8.114
REMARK INTRA:                   0.000
REMARK UNBOUND:                 0.000
ROOT
REMARK  Name = salbutamol
REMARK                            x       y       z     vdW  Elec       q    Type
REMARK                         _______ _______ _______ _____ _____    ______ ____
ATOM      1  C   UNL     1      62.814  64.425  70.227  0.00  0.00    +0.000 C 
ATOM      2  C   UNL     1      62.139  64.131  69.855  0.00  0.00    +0.000 C 
ATOM      3  C   UNL     1      62.585  63.953  69.185  0.00  0.00    +0.000 C 
ATOM      4  C   UNL     1      61.692  64.310  70.527  0.00  0.00    +0.000 C 
ATOM      5  N   UNL     1      61.463  63.837  69.485  0.00  0.00    +0.000 NA
ATOM      6  C   UNL     1      61.511  63.535  68.719  0.00  0.00    +0.000 C 
ATOM      7  C   UNL     1      60.835  63.241  68.347  0.00  0.00    +0.000 C 
ATOM      8  O   UNL     1      60.112  63.249  68.743  0.00  0.00    +0.000 OA
ATOM      9  C   UNL     1      60.884  62.940  67.582  0.00  0.00    +0.000 A 
ATOM     10  C   UNL     1      60.209  62.645  67.210  0.00  0.00    +0.000 A 
ATOM     11  C   UNL     1      60.257  62.344  66.444  0.00  0.00    +0.000 A 
ATOM     12  C   UNL     1      59.582  62.050  66.073  0.00  0.00    +0.000 C 
ATOM     13  O   UNL     1      58.857  62.057  66.468  0.00  0.00    +0.000 OA
ATOM     14  C   UNL     1      60.981  62.336  66.049  0.00  0.00    +0.000 A 
ATOM     15  O   UNL     1      61.029  62.034  65.282  0.00  0.00    +0.000 OA
ATOM     16  C   UNL     1      61.657  62.630  66.420  0.00  0.00    +0.000 A 
ATOM     17  C   UNL     1      61.608  62.932  67.186  0.00  0.00    +0.000 A 
ENDROOT
TORSDOF 0
ENDMDL
MODEL 7
REMARK VINA RESULT:    -7.998      6.028      7.889
REMARK INTER + INTRA:          -7.998
REMARK INTER:                  -7.998
REMARK INTRA:                   0.000
REMARK UNBOUND:                 0.000
ROOT
REMARK  Name = salbutamol
REMARK                            x       y       z     vdW  Elec       q    Type
REMARK                         _______ _______ _______ _____ _____    ______ ____
ATOM      1  C   UNL     1      61.635  65.725  69.398  0.00  0.00    +0.000 C 
ATOM      2  C   UNL     1      62.223  65.737  69.976  0.00  0.00    +0.000 C 
ATOM      3  C   UNL     1      62.712  66.169  69.472  0.00  0.00    +0.000 C 
ATOM      4  C   UNL     1      61.734  65.305  70.481  0.00  0.00    +0.000 C 
ATOM      5  N   UNL     1      62.811  65.748  70.555  0.00  0.00    +0.000 NA
ATOM      6  C   UNL     1      63.528  66.128  70.407  0.00  0.00    +0.000 C 
ATOM      7  C   UNL     1      64.116  66.140  70.987  0.00  0.00    +0.000 C 
ATOM      8  O   UNL     1      63.986  65.772  71.713  0.00  0.00    +0.000 OA
ATOM      9  C   UNL     1      64.833  66.520  70.839  0.00  0.00    +0.000 A 
ATOM     10  C   UNL     1      65.421  66.532  71.417  0.00  0.00    +0.000 A 
ATOM     11  C   UNL     1      66.138  66.912  71.269  0.00  0.00    +0.000 A 
ATOM     12  C   UNL     1      66.725  66.923  71.848  0.00  0.00    +0.000 C 
ATOM     13  O   UNL     1      66.596  66.555  72.575  0.00  0.00    +0.000 OA
ATOM     14  C   UNL     1      66.267  67.280  70.543  0.00  0.00    +0.000 A 
ATOM     15  O   UNL     1      66.985  67.660  70.395  0.00  0.00    +0.000 OA
ATOM     16  C   UNL     1      65.679  67.269  69.964  0.00  0.00    +0.000 A 
ATOM     17  C   UNL     1      64.962  66.889  70.112  0.00  0.00    +0.000 A 
ENDROOT
TORSDOF 0
ENDMDL
MODEL 8
REMARK VINA RESULT:    -7.939      5.081      6.367
REMARK INTER + INTRA:          -7.939
REMARK INTER:                  -7.939
REMARK INTRA:                   0.000
REMARK UNBOUND:                 0.000
ROOT
REMARK  Name = salbutamol
REMARK                            x       y       z     vdW  Elec       q    Type
REMARK                         _______ _______ _______ _____ _____    ______ ____
ATOM      1  C   UNL     1      60.692  61.690  70.096  0.00  0.00    +0.000 C 
ATOM      2  C   UNL     1      60.486  62.386  70.489  0.00  0.00    +0.000 C 
ATOM      3  C   UNL     1      60.472  62.788  69.769  0.00  0.00    +0.000 C 
ATOM      4  C   UNL     1      60.501  61.983  71.209  0.00  0.00    +0.000 C 
ATOM      5  N   UNL     1      60.280  63.081  70.883  0.00  0.00    +0.000 NA
ATOM      6  C   UNL     1      60.165  63.778  70.456  0.00  0.00    +0.000 C 
ATOM      7  C   UNL     1      59.959  64.474  70.849  0.00  0.00    +0.000 C 
ATOM      8  O   UNL     1      59.869  64.472  71.669  0.00  0.00    +0.000 OA
ATOM      9  C   UNL     1      59.843  65.169  70.423  0.00  0.00    +0.000 A 
ATOM     10  C   UNL     1      59.638  65.865  70.815  0.00  0.00    +0.000 A 
ATOM     11  C   UNL     1      59.522  66.561  70.388  0.00  0.00    +0.000 A 
ATOM     12  C   UNL     1      59.316  67.256  70.781  0.00  0.00    +0.000 C 
ATOM     13  O   UNL     1      59.226  67.256  71.601  0.00  0.00    +0.000 OA
ATOM     14  C   UNL     1      59.612  66.562  69.569  0.00  0.00    +0.000 A 
ATOM     15  O   UNL     1      59.496  67.259  69.141  0.00  0.00    +0.000 OA
ATOM     16  C   UNL     1      59.818  65.867  69.175  0.00  0.00    +0.000 A 
ATOM     17  C   UNL     1      59.934  65.170  69.602  0.00  0.00    +0.000 A 
ENDROOT
TORSDOF 0
ENDMDL
MODEL 9
REMARK VINA RESULT:    -7.905      6.184      7.197
REMARK INTER + INTRA:          -7.905
REMARK INTER:                  -7.905
REMARK INTRA:                   0.000
REMARK UNBOUND:                 0.000
ROOT
REMARK  Name = salbutamol
REMARK                            x       y       z     vdW  Elec       q    Type
REMARK                         _______ _______ _______ _____ _____    ______ ____
ATOM      1  C   UNL     1      61.094  62.808  71.651  0.00  0.00    +0.000 C 
ATOM      2  C   UNL     1      61.466  63.516  71.856  0.00  0.00    +0.000 C 
ATOM      3  C   UNL     1      61.987  63.426  71.223  0.00  0.00    +0.000 C 
ATOM      4  C   UNL     1      60.944  63.606  72.489  0.00  0.00    +0.000 C 
ATOM      5  N   UNL     1      61.837  64.224  72.062  0.00  0.00    +0.000 NA
ATOM      6  C   UNL     1      62.474  64.500  71.617  0.00  0.00    +0.000 C 
ATOM      7  C   UNL     1      62.845  65.208  71.822  0.00  0.00    +0.000 C 
ATOM      8  O   UNL     1      62.579  65.639  72.473  0.00  0.00    +0.000 OA
ATOM      9  C   UNL     1      63.482  65.484  71.377  0.00  0.00    +0.000 A 
ATOM     10  C   UNL     1      63.854  66.191  71.582  0.00  0.00    +0.000 A 
ATOM     11  C   UNL     1      64.491  66.467  71.137  0.00  0.00    +0.000 A 
ATOM     12  C   UNL     1      64.862  67.174  71.343  0.00  0.00    +0.000 C 
ATOM     13  O   UNL     1      64.596  67.606  71.994  0.00  0.00    +0.000 OA
ATOM     14  C   UNL     1      64.757  66.036  70.487  0.00  0.00    +0.000 A 
ATOM     15  O   UNL     1      65.395  66.312  70.041  0.00  0.00    +0.000 OA
ATOM     16  C   UNL     1      64.386  65.328  70.281  0.00  0.00    +0.000 A 
ATOM     17  C   UNL     1      63.749  65.052  70.726  0.00  0.00    +0.000 A 
ENDROOT
TORSDOF 0
ENDMDL
