MODEL 1
REMARK VINA RESULT:    -9.837      0.000      0.000
REMARK INTER + INTRA:          -9.837
REMARK INTER:                  -9.837
REMARK INTRA:                   0.000
REMARK UNBOUND:                 0.000
ROOT
REMARK  Name = salinazid
REMARK                            x       y       z     vdW  Elec       q    Type
REMARK                         _______ _______ _______ _____ _____    ______ ____
ATOM      1  O   UNL     1      62.697  62.581  64.825  0.00  0.00    +0.000 OA
ATOM      2  C   UNL     1      62.057  62.073  64.719  0.00  0.00    +0.000 A 
ATOM      3  C   UNL     1      61.540  61.924  65.345  0.00  0.00    +0.000 A 
ATOM      4  C   UNL     1      61.665  62.285  66.078  0.00  0.00    +0.000 C 
ATOM      5  N   UNL     1      61.148  62.136  66.703  0.00  0.00    +0.000 NA
ATOM      6  N   UNL     1      61.273  62.497  67.434  0.00  0.00    +0.000 NA
ATOM      7  C   UNL     1      60.756  62.348  68.061  0.00  0.00    +0.000 C 
ATOM      8  O   UNL     1      60.115  61.839  67.955  0.00  0.00    +0.000 OA
ATOM      9  C   UNL     1      60.881  62.708  68.792  0.00  0.00    +0.000 A 
ATOM     10  C   UNL     1      61.520  63.217  68.898  0.00  0.00    +0.000 A 
ATOM     11  C   UNL     1      61.645  63.577  69.630  0.00  0.00    +0.000 A 
ATOM     12  N   UNL     1      61.128  63.429  70.255  0.00  0.00    +0.000 NA
ATOM     13  C   UNL     1      60.488  62.920  70.150  0.00  0.00    +0.000 A 
ATOM     14  C   UNL     1      60.363  62.560  69.419  0.00  0.00    +0.000 A 
ATOM     15  C   UNL     1      60.900  61.415  65.240  0.00  0.00    +0.000 A 
ATOM     16  C   UNL     1      60.776  61.055  64.508  0.00  0.00    +0.000 A 
ATOM     17  C   UNL     1      61.292  61.203  63.882  0.00  0.00    +0.000 A 
ATOM     18  C   UNL     1      61.933  61.712  63.988  0.00  0.00    +0.000 A 
ENDROOT
TORSDOF 0
ENDMDL
MODEL 2
REMARK VINA RESULT:    -9.391      1.257      4.526
REMARK INTER + INTRA:          -9.391
REMARK INTER:                  -9.391
REMARK INTRA:                   0.000
REMARK UNBOUND:                 0.000
ROOT
REMARK  Name = salinazid
REMARK                            x       y       z     vdW  Elec       q    Type
REMARK                         _______ _______ _______ _____ _____    ______ ____
ATOM      1  O   UNL     1      62.465  64.164  68.942  0.00  0.00    +0.000 OA
ATOM      2  C   UNL     1      61.766  63.791  69.170  0.00  0.00    +0.000 A 
ATOM      3  C   UNL     1      61.370  63.298  68.640  0.00  0.00    +0.000 A 
ATOM      4  C   UNL     1      61.673  63.178  67.881  0.00  0.00    +0.000 C 
ATOM      5  N   UNL     1      61.277  62.685  67.352  0.00  0.00    +0.000 NA
ATOM      6  N   UNL     1      61.581  62.566  66.595  0.00  0.00    +0.000 NA
ATOM      7  C   UNL     1      61.184  62.072  66.064  0.00  0.00    +0.000 C 
ATOM      8  O   UNL     1      60.485  61.699  66.292  0.00  0.00    +0.000 OA
ATOM      9  C   UNL     1      61.488  61.953  65.307  0.00  0.00    +0.000 A 
ATOM     10  C   UNL     1      62.187  62.326  65.079  0.00  0.00    +0.000 A 
ATOM     11  C   UNL     1      62.491  62.206  64.321  0.00  0.00    +0.000 A 
ATOM     12  N   UNL     1      62.094  61.713  63.792  0.00  0.00    +0.000 NA
ATOM     13  C   UNL     1      61.396  61.340  64.019  0.00  0.00    +0.000 A 
ATOM     14  C   UNL     1      61.092  61.460  64.777  0.00  0.00    +0.000 A 
ATOM     15  C   UNL     1      60.670  62.924  68.868  0.00  0.00    +0.000 A 
ATOM     16  C   UNL     1      60.367  63.044  69.626  0.00  0.00    +0.000 A 
ATOM     17  C   UNL     1      60.763  63.537  70.155  0.00  0.00    +0.000 A 
ATOM     18  C   UNL     1      61.462  63.910  69.927  0.00  0.00    +0.000 A 
ENDROOT
TORSDOF 0
ENDMDL
MODEL 3
REMARK VINA RESULT:    -8.965      4.949      6.448
REMARK INTER + INTRA:          -8.965
REMARK INTER:                  -8.965
REMARK INTRA:                   0.000
REMARK UNBOUND:                 0.000
ROOT
REMARK  Name = salinazid
REMARK                            x       y       z     vdW  Elec       q    Type
REMARK                         _______ _______ _______ _____ _____    ______ ____
ATOM      1  O   UNL     1      64.848  67.320  72.115  0.00  0.00    +0.000 OA
ATOM      2  C   UNL     1      65.042  67.124  71.338  0.00  0.00    +0.000 A 
ATOM      3  C   UNL     1      64.666  66.490  70.966  0.00  0.00    +0.000 A 
ATOM      4  C   UNL     1      64.095  66.052  71.373  0.00  0.00    +0.000 C 
ATOM      5  N   UNL     1      63.720  65.419  71.001  0.00  0.00    +0.000 NA
ATOM      6  N   UNL     1      63.150  64.983  71.407  0.00  0.00    +0.000 NA
ATOM      7  C   UNL     1      62.774  64.348  71.035  0.00  0.00    +0.000 C 
ATOM      8  O   UNL     1      62.968  64.152  70.258  0.00  0.00    +0.000 OA
ATOM      9  C   UNL     1      62.204  63.912  71.441  0.00  0.00    +0.000 A 
ATOM     10  C   UNL     1      62.010  64.108  72.218  0.00  0.00    +0.000 A 
ATOM     11  C   UNL     1      61.439  63.671  72.624  0.00  0.00    +0.000 A 
ATOM     12  N   UNL     1      61.064  63.038  72.252  0.00  0.00    +0.000 NA
ATOM     13  C   UNL     1      61.258  62.841  71.476  0.00  0.00    +0.000 A 
ATOM     14  C   UNL     1      61.828  63.278  71.069  0.00  0.00    +0.000 A 
ATOM     15  C   UNL     1      64.860  66.293  70.189  0.00  0.00    +0.000 A 
ATOM     16  C   UNL     1      65.430  66.731  69.784  0.00  0.00    +0.000 A 
ATOM     17  C   UNL     1      65.806  67.364  70.155  0.00  0.00    +0.000 A 
ATOM     18  C   UNL     1      65.611  67.560  70.932  0.00  0.00    +0.000 A 
ENDROOT
TORSDOF 0
ENDMDL
MODEL 4
REMARK VINA RESULT:    -8.873      5.165      6.737
REMARK INTER + INTRA:          -8.873
REMARK INTER:                  -8.873
REMARK INTRA:                   0.000
REMARK UNBOUND:                 0.000
ROOT
REMARK  Name = salinazid
REMARK                            x       y       z     vdW  Elec       q    Type
REMARK                         _______ _______ _______ _____ _____    ______ ____
ATOM      1  O   UNL     1      61.849  63.401  70.479  0.00  0.00    +0.000 OA
ATOM      2  C   UNL     1      61.712  63.626  71.260  0.00  0.00    +0.000 A 
ATOM      3  C   UNL     1      62.156  64.234  71.598  0.00  0.00    +0.000 A 
ATOM      4  C   UNL     1      62.737  64.618  71.154  0.00  0.00    +0.000 C 
ATOM      5  N   UNL     1      63.179  65.226  71.492  0.00  0.00    +0.000 NA
ATOM      6  N   UNL     1      63.759  65.609  71.048  0.00  0.00    +0.000 NA
ATOM      7  C   UNL     1      64.203  66.217  71.386  0.00  0.00    +0.000 C 
ATOM      8  O   UNL     1      64.066  66.442  72.168  0.00  0.00    +0.000 OA
ATOM      9  C   UNL     1      64.783  66.600  70.941  0.00  0.00    +0.000 A 
ATOM     10  C   UNL     1      64.919  66.376  70.161  0.00  0.00    +0.000 A 
ATOM     11  C   UNL     1      65.500  66.759  69.716  0.00  0.00    +0.000 A 
ATOM     12  N   UNL     1      65.943  67.367  70.054  0.00  0.00    +0.000 NA
ATOM     13  C   UNL     1      65.806  67.592  70.835  0.00  0.00    +0.000 A 
ATOM     14  C   UNL     1      65.227  67.209  71.280  0.00  0.00    +0.000 A 
ATOM     15  C   UNL     1      62.019  64.459  72.380  0.00  0.00    +0.000 A 
ATOM     16  C   UNL     1      61.439  64.075  72.824  0.00  0.00    +0.000 A 
ATOM     17  C   UNL     1      60.996  63.468  72.487  0.00  0.00    +0.000 A 
ATOM     18  C   UNL     1      61.132  63.243  71.705  0.00  0.00    +0.000 A 
ENDROOT
TORSDOF 0
ENDMDL
MODEL 5
REMARK VINA RESULT:    -8.760      1.556      4.917
REMARK INTER + INTRA:          -8.760
REMARK INTER:                  -8.760
REMARK INTRA:                   0.000
REMARK UNBOUND:                 0.000
ROOT
REMARK  Name = salinazid
REMARK                            x       y       z     vdW  Elec       q    Type
REMARK                         _______ _______ _______ _____ _____    ______ ____
ATOM      1  O   UNL     1      62.420  63.835  70.887  0.00  0.00    +0.000 OA
ATOM      2  C   UNL     1      61.708  63.505  71.139  0.00  0.00    +0.000 A 
ATOM      3  C   UNL     1      61.208  63.137  70.595  0.00  0.00    +0.000 A 
ATOM      4  C   UNL     1      61.421  63.100  69.798  0.00  0.00    +0.000 C 
ATOM      5  N   UNL     1      60.920  62.732  69.255  0.00  0.00    +0.000 NA
ATOM      6  N   UNL     1      61.133  62.696  68.459  0.00  0.00    +0.000 NA
ATOM      7  C   UNL     1      60.633  62.328  67.915  0.00  0.00    +0.000 C 
ATOM      8  O   UNL     1      59.920  61.997  68.168  0.00  0.00    +0.000 OA
ATOM      9  C   UNL     1      60.846  62.291  67.119  0.00  0.00    +0.000 A 
ATOM     10  C   UNL     1      61.558  62.621  66.867  0.00  0.00    +0.000 A 
ATOM     11  C   UNL     1      61.771  62.584  66.070  0.00  0.00    +0.000 A 
ATOM     12  N   UNL     1      61.270  62.216  65.527  0.00  0.00    +0.000 NA
ATOM     13  C   UNL     1      60.559  61.886  65.779  0.00  0.00    +0.000 A 
ATOM     14  C   UNL     1      60.346  61.923  66.575  0.00  0.00    +0.000 A 
ATOM     15  C   UNL     1      60.495  62.807  70.848  0.00  0.00    +0.000 A 
ATOM     16  C   UNL     1      60.283  62.844  71.644  0.00  0.00    +0.000 A 
ATOM     17  C   UNL     1      60.782  63.211  72.188  0.00  0.00    +0.000 A 
ATOM     18  C   UNL     1      61.495  63.542  71.935  0.00  0.00    +0.000 A 
ENDROOT
TORSDOF 0
ENDMDL
MODEL 6
REMARK VINA RESULT:    -8.350      4.571      5.553
REMARK INTER + INTRA:          -8.350
REMARK INTER:                  -8.350
REMARK INTRA:                   0.000
REMARK UNBOUND:                 0.000
ROOT
REMARK  Name = salinazid
REMARK                            x       y       z     vdW  Elec       q    Type
REMARK                         _______ _______ _______ _____ _____    ______ ____
ATOM      1  O   UNL     1      61.635  63.114  72.930  0.00  0.00    +0.000 OA
ATOM      2  C   UNL     1      61.530  62.593  72.301  0.00  0.00    +0.000 A 
ATOM      3  C   UNL     1      61.202  62.861  71.593  0.00  0.00    +0.000 A 
ATOM      4  C   UNL     1      60.979  63.652  71.514  0.00  0.00    +0.000 C 
ATOM      5  N   UNL     1      60.652  63.920  70.806  0.00  0.00    +0.000 NA
ATOM      6  N   UNL     1      60.429  64.710  70.729  0.00  0.00    +0.000 NA
ATOM      7  C   UNL     1      60.101  64.978  70.020  0.00  0.00    +0.000 C 
ATOM      8  O   UNL     1      59.996  64.456  69.390  0.00  0.00    +0.000 OA
ATOM      9  C   UNL     1      59.879  65.769  69.942  0.00  0.00    +0.000 A 
ATOM     10  C   UNL     1      59.984  66.291  70.571  0.00  0.00    +0.000 A 
ATOM     11  C   UNL     1      59.761  67.082  70.493  0.00  0.00    +0.000 A 
ATOM     12  N   UNL     1      59.434  67.349  69.785  0.00  0.00    +0.000 NA
ATOM     13  C   UNL     1      59.329  66.828  69.156  0.00  0.00    +0.000 A 
ATOM     14  C   UNL     1      59.551  66.037  69.234  0.00  0.00    +0.000 A 
ATOM     15  C   UNL     1      61.097  62.338  70.963  0.00  0.00    +0.000 A 
ATOM     16  C   UNL     1      61.320  61.548  71.042  0.00  0.00    +0.000 A 
ATOM     17  C   UNL     1      61.647  61.280  71.749  0.00  0.00    +0.000 A 
ATOM     18  C   UNL     1      61.752  61.802  72.379  0.00  0.00    +0.000 A 
ENDROOT
TORSDOF 0
ENDMDL
MODEL 7
REMARK VINA RESULT:    -8.214      3.374      4.923
REMARK INTER + INTRA:          -8.214
REMARK INTER:                  -8.214
REMARK INTRA:                   0.000
REMARK UNBOUND:                 0.000
ROOT
REMARK  Name = salinazid
REMARK                            x       y       z     vdW  Elec       q    Type
REMARK                         _______ _______ _______ _____ _____    ______ ____
ATOM      1  O   UNL     1      61.292  62.917  68.536  0.00  0.00    +0.000 OA
ATOM      2  C   UNL     1      61.023  62.619  69.255  0.00  0.00    +0.000 A 
ATOM      3  C   UNL     1      61.249  62.981  69.963  0.00  0.00    +0.000 A 
ATOM      4  C   UNL     1      61.745  63.641  69.948  0.00  0.00    +0.000 C 
ATOM      5  N   UNL     1      61.971  64.002  70.655  0.00  0.00    +0.000 NA
ATOM      6  N   UNL     1      62.467  64.661  70.640  0.00  0.00    +0.000 NA
ATOM      7  C   UNL     1      62.693  65.022  71.347  0.00  0.00    +0.000 C 
ATOM      8  O   UNL     1      62.423  64.724  72.067  0.00  0.00    +0.000 OA
ATOM      9  C   UNL     1      63.189  65.681  71.332  0.00  0.00    +0.000 A 
ATOM     10  C   UNL     1      63.458  65.979  70.612  0.00  0.00    +0.000 A 
ATOM     11  C   UNL     1      63.954  66.638  70.598  0.00  0.00    +0.000 A 
ATOM     12  N   UNL     1      64.180  66.999  71.305  0.00  0.00    +0.000 NA
ATOM     13  C   UNL     1      63.911  66.702  72.024  0.00  0.00    +0.000 A 
ATOM     14  C   UNL     1      63.415  66.043  72.039  0.00  0.00    +0.000 A 
ATOM     15  C   UNL     1      60.979  62.683  70.683  0.00  0.00    +0.000 A 
ATOM     16  C   UNL     1      60.483  62.024  70.696  0.00  0.00    +0.000 A 
ATOM     17  C   UNL     1      60.257  61.662  69.991  0.00  0.00    +0.000 A 
ATOM     18  C   UNL     1      60.527  61.960  69.270  0.00  0.00    +0.000 A 
ENDROOT
TORSDOF 0
ENDMDL
MODEL 8
REMARK VINA RESULT:    -8.187      5.067      6.203
REMARK INTER + INTRA:          -8.187
REMARK INTER:                  -8.187
REMARK INTRA:                   0.000
REMARK UNBOUND:                 0.000
ROOT
REMARK  Name = salinazid
REMARK                            x       y       z     vdW  Elec       q    Type
REMARK                         _______ _______ _______ _____ _____    ______ ____
ATOM      1  O   UNL     1      61.498  62.431  70.608  0.00  0.00    +0.000 OA
ATOM      2  C   UNL     1      61.565  62.329  71.423  0.00  0.00    +0.000 A 
ATOM      3  C   UNL     1      61.285  62.912  71.936  0.00  0.00    +0.000 A 
ATOM      4  C   UNL     1      60.936  63.596  71.633  0.00  0.00    +0.000 C 
ATOM      5  N   UNL     1      60.656  64.178  72.146  0.00  0.00    +0.000 NA
ATOM      6  N   UNL     1      60.308  64.861  71.842  0.00  0.00    +0.000 NA
ATOM      7  C   UNL     1      60.027  65.444  72.355  0.00  0.00    +0.000 C 
ATOM      8  O   UNL     1      60.095  65.343  73.171  0.00  0.00    +0.000 OA
ATOM      9  C   UNL     1      59.680  66.128  72.052  0.00  0.00    +0.000 A 
ATOM     10  C   UNL     1      59.612  66.229  71.237  0.00  0.00    +0.000 A 
ATOM     11  C   UNL     1      59.264  66.913  70.933  0.00  0.00    +0.000 A 
ATOM     12  N   UNL     1      58.984  67.495  71.446  0.00  0.00    +0.000 NA
ATOM     13  C   UNL     1      59.051  67.394  72.261  0.00  0.00    +0.000 A 
ATOM     14  C   UNL     1      59.399  66.710  72.565  0.00  0.00    +0.000 A 
ATOM     15  C   UNL     1      61.352  62.810  72.752  0.00  0.00    +0.000 A 
ATOM     16  C   UNL     1      61.700  62.126  73.055  0.00  0.00    +0.000 A 
ATOM     17  C   UNL     1      61.981  61.544  72.543  0.00  0.00    +0.000 A 
ATOM     18  C   UNL     1      61.913  61.646  71.727  0.00  0.00    +0.000 A 
ENDROOT
TORSDOF 0
ENDMDL
MODEL 9
REMARK VINA RESULT:    -8.129      2.898      5.323
REMARK INTER + INTRA:          -8.129
REMARK INTER:                  -8.129
REMARK INTRA:                   0.000
REMARK UNBOUND:                 0.000
ROOT
REMARK  Name = salinazid
REMARK                            x       y       z     vdW  Elec       q    Type
REMARK                         _______ _______ _______ _____ _____    ______ ____
ATOM      1  O   UNL     1      64.099  66.468  69.100  0.00  0.00    +0.000 OA
ATOM      2  C   UNL     1      64.236  66.201  69.868  0.00  0.00    +0.000 A 
ATOM      3  C   UNL     1      63.826  65.545  70.156  0.00  0.00    +0.000 A 
ATOM      4  C   UNL     1      63.279  65.156  69.675  0.00  0.00    +0.000 C 
ATOM      5  N   UNL     1      62.869  64.501  69.964  0.00  0.00    +0.000 NA
ATOM      6  N   UNL     1      62.323  64.113  69.484  0.00  0.00    +0.000 NA
ATOM      7  C   UNL     1      61.913  63.457  69.772  0.00  0.00    +0.000 C 
ATOM      8  O   UNL     1      62.050  63.189  70.540  0.00  0.00    +0.000 OA
ATOM      9  C   UNL     1      61.366  63.069  69.292  0.00  0.00    +0.000 A 
ATOM     10  C   UNL     1      61.229  63.336  68.524  0.00  0.00    +0.000 A 
ATOM     11  C   UNL     1      60.681  62.947  68.043  0.00  0.00    +0.000 A 
ATOM     12  N   UNL     1      60.272  62.292  68.332  0.00  0.00    +0.000 NA
ATOM     13  C   UNL     1      60.409  62.025  69.100  0.00  0.00    +0.000 A 
ATOM     14  C   UNL     1      60.956  62.413  69.580  0.00  0.00    +0.000 A 
ATOM     15  C   UNL     1      63.963  65.277  70.925  0.00  0.00    +0.000 A 
ATOM     16  C   UNL     1      64.511  65.666  71.404  0.00  0.00    +0.000 A 
ATOM     17  C   UNL     1      64.920  66.322  71.117  0.00  0.00    +0.000 A 
ATOM     18  C   UNL     1      64.783  66.589  70.348  0.00  0.00    +0.000 A 
ENDROOT
TORSDOF 0
ENDMDL
