MODEL 1
REMARK VINA RESULT:    -6.408      0.000      0.000
REMARK INTER + INTRA:          -6.408
REMARK INTER:                  -6.408
REMARK INTRA:                   0.000
REMARK UNBOUND:                 0.000
ROOT
REMARK  Name = salicylic acid
REMARK                            x       y       z     vdW  Elec       q    Type
REMARK                         _______ _______ _______ _____ _____    ______ ____
ATOM      1  O   UNL     1      60.606  62.101  66.485  0.00  0.00    +0.000 OA
ATOM      2  C   UNL     1      61.335  62.343  66.182  0.00  0.00    +0.000 C 
ATOM      3  O   UNL     1      61.834  62.816  66.638  0.00  0.00    +0.000 OA
ATOM      4  C   UNL     1      61.563  62.114  65.424  0.00  0.00    +0.000 A 
ATOM      5  C   UNL     1      62.290  62.356  65.120  0.00  0.00    +0.000 A 
ATOM      6  C   UNL     1      62.519  62.126  64.362  0.00  0.00    +0.000 A 
ATOM      7  C   UNL     1      62.019  61.653  63.907  0.00  0.00    +0.000 A 
ATOM      8  C   UNL     1      61.291  61.410  64.209  0.00  0.00    +0.000 A 
ATOM      9  C   UNL     1      61.063  61.640  64.968  0.00  0.00    +0.000 A 
ATOM     10  O   UNL     1      60.334  61.397  65.272  0.00  0.00    +0.000 OA
ENDROOT
TORSDOF 0
ENDMDL
MODEL 2
REMARK VINA RESULT:    -6.360      1.173      2.063
REMARK INTER + INTRA:          -6.360
REMARK INTER:                  -6.360
REMARK INTRA:                   0.000
REMARK UNBOUND:                 0.000
ROOT
REMARK  Name = salicylic acid
REMARK                            x       y       z     vdW  Elec       q    Type
REMARK                         _______ _______ _______ _____ _____    ______ ____
ATOM      1  O   UNL     1      60.927  60.880  63.495  0.00  0.00    +0.000 OA
ATOM      2  C   UNL     1      61.619  61.283  63.695  0.00  0.00    +0.000 C 
ATOM      3  O   UNL     1      62.239  61.332  63.153  0.00  0.00    +0.000 OA
ATOM      4  C   UNL     1      61.690  61.637  64.436  0.00  0.00    +0.000 A 
ATOM      5  C   UNL     1      62.381  62.040  64.637  0.00  0.00    +0.000 A 
ATOM      6  C   UNL     1      62.452  62.394  65.379  0.00  0.00    +0.000 A 
ATOM      7  C   UNL     1      61.832  62.345  65.920  0.00  0.00    +0.000 A 
ATOM      8  C   UNL     1      61.140  61.942  65.720  0.00  0.00    +0.000 A 
ATOM      9  C   UNL     1      61.069  61.588  64.979  0.00  0.00    +0.000 A 
ATOM     10  O   UNL     1      60.377  61.185  64.778  0.00  0.00    +0.000 OA
ENDROOT
TORSDOF 0
ENDMDL
MODEL 3
REMARK VINA RESULT:    -6.350      0.531      1.489
REMARK INTER + INTRA:          -6.350
REMARK INTER:                  -6.350
REMARK INTRA:                   0.000
REMARK UNBOUND:                 0.000
ROOT
REMARK  Name = salicylic acid
REMARK                            x       y       z     vdW  Elec       q    Type
REMARK                         _______ _______ _______ _____ _____    ______ ____
ATOM      1  O   UNL     1      60.402  62.395  66.656  0.00  0.00    +0.000 OA
ATOM      2  C   UNL     1      60.366  61.995  65.935  0.00  0.00    +0.000 C 
ATOM      3  O   UNL     1      59.664  61.630  65.702  0.00  0.00    +0.000 OA
ATOM      4  C   UNL     1      61.030  61.960  65.449  0.00  0.00    +0.000 A 
ATOM      5  C   UNL     1      60.994  61.560  64.729  0.00  0.00    +0.000 A 
ATOM      6  C   UNL     1      61.660  61.525  64.242  0.00  0.00    +0.000 A 
ATOM      7  C   UNL     1      62.361  61.890  64.476  0.00  0.00    +0.000 A 
ATOM      8  C   UNL     1      62.398  62.291  65.197  0.00  0.00    +0.000 A 
ATOM      9  C   UNL     1      61.733  62.326  65.683  0.00  0.00    +0.000 A 
ATOM     10  O   UNL     1      61.769  62.726  66.405  0.00  0.00    +0.000 OA
ENDROOT
TORSDOF 0
ENDMDL
MODEL 4
REMARK VINA RESULT:    -5.911      1.197      2.492
REMARK INTER + INTRA:          -5.911
REMARK INTER:                  -5.911
REMARK INTRA:                   0.000
REMARK UNBOUND:                 0.000
ROOT
REMARK  Name = salicylic acid
REMARK                            x       y       z     vdW  Elec       q    Type
REMARK                         _______ _______ _______ _____ _____    ______ ____
ATOM      1  O   UNL     1      62.063  61.846  64.772  0.00  0.00    +0.000 OA
ATOM      2  C   UNL     1      61.268  61.625  64.787  0.00  0.00    +0.000 C 
ATOM      3  O   UNL     1      60.961  61.151  64.185  0.00  0.00    +0.000 OA
ATOM      4  C   UNL     1      60.782  61.878  65.402  0.00  0.00    +0.000 A 
ATOM      5  C   UNL     1      59.987  61.657  65.417  0.00  0.00    +0.000 A 
ATOM      6  C   UNL     1      59.500  61.910  66.033  0.00  0.00    +0.000 A 
ATOM      7  C   UNL     1      59.808  62.384  66.634  0.00  0.00    +0.000 A 
ATOM      8  C   UNL     1      60.602  62.605  66.620  0.00  0.00    +0.000 A 
ATOM      9  C   UNL     1      61.089  62.352  66.004  0.00  0.00    +0.000 A 
ATOM     10  O   UNL     1      61.885  62.572  65.989  0.00  0.00    +0.000 OA
ENDROOT
TORSDOF 0
ENDMDL
MODEL 5
REMARK VINA RESULT:    -5.597     16.038     16.809
REMARK INTER + INTRA:          -5.597
REMARK INTER:                  -5.597
REMARK INTRA:                   0.000
REMARK UNBOUND:                 0.000
ROOT
REMARK  Name = salicylic acid
REMARK                            x       y       z     vdW  Elec       q    Type
REMARK                         _______ _______ _______ _____ _____    ______ ____
ATOM      1  O   UNL     1      58.810  78.093  73.219  0.00  0.00    +0.000 OA
ATOM      2  C   UNL     1      59.183  77.378  73.042  0.00  0.00    +0.000 C 
ATOM      3  O   UNL     1      60.003  77.315  73.103  0.00  0.00    +0.000 OA
ATOM      4  C   UNL     1      58.736  76.728  72.804  0.00  0.00    +0.000 A 
ATOM      5  C   UNL     1      59.107  76.013  72.627  0.00  0.00    +0.000 A 
ATOM      6  C   UNL     1      58.660  75.363  72.389  0.00  0.00    +0.000 A 
ATOM      7  C   UNL     1      57.840  75.427  72.328  0.00  0.00    +0.000 A 
ATOM      8  C   UNL     1      57.467  76.141  72.505  0.00  0.00    +0.000 A 
ATOM      9  C   UNL     1      57.915  76.792  72.743  0.00  0.00    +0.000 A 
ATOM     10  O   UNL     1      57.542  77.507  72.920  0.00  0.00    +0.000 OA
ENDROOT
TORSDOF 0
ENDMDL
MODEL 6
REMARK VINA RESULT:    -5.497      7.103      8.120
REMARK INTER + INTRA:          -5.497
REMARK INTER:                  -5.497
REMARK INTRA:                   0.000
REMARK UNBOUND:                 0.000
ROOT
REMARK  Name = salicylic acid
REMARK                            x       y       z     vdW  Elec       q    Type
REMARK                         _______ _______ _______ _____ _____    ______ ____
ATOM      1  O   UNL     1      64.425  65.314  70.924  0.00  0.00    +0.000 OA
ATOM      2  C   UNL     1      64.678  65.758  70.276  0.00  0.00    +0.000 C 
ATOM      3  O   UNL     1      64.424  65.559  69.516  0.00  0.00    +0.000 OA
ATOM      4  C   UNL     1      65.184  66.398  70.387  0.00  0.00    +0.000 A 
ATOM      5  C   UNL     1      65.437  66.842  69.739  0.00  0.00    +0.000 A 
ATOM      6  C   UNL     1      65.943  67.484  69.850  0.00  0.00    +0.000 A 
ATOM      7  C   UNL     1      66.197  67.682  70.609  0.00  0.00    +0.000 A 
ATOM      8  C   UNL     1      65.944  67.239  71.258  0.00  0.00    +0.000 A 
ATOM      9  C   UNL     1      65.438  66.597  71.147  0.00  0.00    +0.000 A 
ATOM     10  O   UNL     1      65.184  66.153  71.796  0.00  0.00    +0.000 OA
ENDROOT
TORSDOF 0
ENDMDL
MODEL 7
REMARK VINA RESULT:    -5.475      6.215      6.886
REMARK INTER + INTRA:          -5.475
REMARK INTER:                  -5.475
REMARK INTRA:                   0.000
REMARK UNBOUND:                 0.000
ROOT
REMARK  Name = salicylic acid
REMARK                            x       y       z     vdW  Elec       q    Type
REMARK                         _______ _______ _______ _____ _____    ______ ____
ATOM      1  O   UNL     1      60.539  64.225  72.714  0.00  0.00    +0.000 OA
ATOM      2  C   UNL     1      60.193  63.808  72.091  0.00  0.00    +0.000 C 
ATOM      3  O   UNL     1      59.495  64.083  71.749  0.00  0.00    +0.000 OA
ATOM      4  C   UNL     1      60.546  63.118  71.811  0.00  0.00    +0.000 A 
ATOM      5  C   UNL     1      60.202  62.701  71.189  0.00  0.00    +0.000 A 
ATOM      6  C   UNL     1      60.555  62.010  70.908  0.00  0.00    +0.000 A 
ATOM      7  C   UNL     1      61.253  61.737  71.251  0.00  0.00    +0.000 A 
ATOM      8  C   UNL     1      61.599  62.153  71.874  0.00  0.00    +0.000 A 
ATOM      9  C   UNL     1      61.246  62.844  72.154  0.00  0.00    +0.000 A 
ATOM     10  O   UNL     1      61.591  63.261  72.777  0.00  0.00    +0.000 OA
ENDROOT
TORSDOF 0
ENDMDL
MODEL 8
REMARK VINA RESULT:    -5.355      7.818      8.634
REMARK INTER + INTRA:          -5.355
REMARK INTER:                  -5.355
REMARK INTRA:                   0.000
REMARK UNBOUND:                 0.000
ROOT
REMARK  Name = salicylic acid
REMARK                            x       y       z     vdW  Elec       q    Type
REMARK                         _______ _______ _______ _____ _____    ______ ____
ATOM      1  O   UNL     1      67.037  67.295  71.335  0.00  0.00    +0.000 OA
ATOM      2  C   UNL     1      66.378  66.866  71.586  0.00  0.00    +0.000 C 
ATOM      3  O   UNL     1      66.339  66.588  72.362  0.00  0.00    +0.000 OA
ATOM      4  C   UNL     1      65.759  66.717  71.063  0.00  0.00    +0.000 A 
ATOM      5  C   UNL     1      65.100  66.289  71.313  0.00  0.00    +0.000 A 
ATOM      6  C   UNL     1      64.481  66.139  70.789  0.00  0.00    +0.000 A 
ATOM      7  C   UNL     1      64.521  66.418  70.014  0.00  0.00    +0.000 A 
ATOM      8  C   UNL     1      65.180  66.846  69.762  0.00  0.00    +0.000 A 
ATOM      9  C   UNL     1      65.799  66.996  70.286  0.00  0.00    +0.000 A 
ATOM     10  O   UNL     1      66.458  67.424  70.035  0.00  0.00    +0.000 OA
ENDROOT
TORSDOF 0
ENDMDL
MODEL 9
REMARK VINA RESULT:    -5.204      6.120      6.927
REMARK INTER + INTRA:          -5.204
REMARK INTER:                  -5.204
REMARK INTRA:                   0.000
REMARK UNBOUND:                 0.000
ROOT
REMARK  Name = salicylic acid
REMARK                            x       y       z     vdW  Elec       q    Type
REMARK                         _______ _______ _______ _____ _____    ______ ____
ATOM      1  O   UNL     1      62.710  64.770  70.886  0.00  0.00    +0.000 OA
ATOM      2  C   UNL     1      62.392  64.636  71.636  0.00  0.00    +0.000 C 
ATOM      3  O   UNL     1      62.422  65.230  72.207  0.00  0.00    +0.000 OA
ATOM      4  C   UNL     1      62.044  63.910  71.813  0.00  0.00    +0.000 A 
ATOM      5  C   UNL     1      61.726  63.777  72.562  0.00  0.00    +0.000 A 
ATOM      6  C   UNL     1      61.378  63.050  72.739  0.00  0.00    +0.000 A 
ATOM      7  C   UNL     1      61.348  62.457  72.167  0.00  0.00    +0.000 A 
ATOM      8  C   UNL     1      61.666  62.590  71.417  0.00  0.00    +0.000 A 
ATOM      9  C   UNL     1      62.014  63.316  71.240  0.00  0.00    +0.000 A 
ATOM     10  O   UNL     1      62.332  63.450  70.490  0.00  0.00    +0.000 OA
ENDROOT
TORSDOF 0
ENDMDL
