MODEL 1
REMARK VINA RESULT:   -17.304      0.000      0.000
REMARK INTER + INTRA:         -17.304
REMARK INTER:                 -17.304
REMARK INTRA:                   0.000
REMARK UNBOUND:                 0.000
ROOT
REMARK  Name = sarolaner
REMARK                            x       y       z     vdW  Elec       q    Type
REMARK                         _______ _______ _______ _____ _____    ______ ____
ATOM      1  C   UNL     1      59.197  65.342  73.222  0.00  0.00    +0.000 C 
ATOM      2  S   UNL     1      59.708  65.224  72.586  0.00  0.00    +0.000 S 
ATOM      3  O   UNL     1      60.280  65.685  72.959  0.00  0.00    +0.000 OA
ATOM      4  O   UNL     1      59.136  64.763  72.212  0.00  0.00    +0.000 OA
ATOM      5  C   UNL     1      60.220  65.106  71.949  0.00  0.00    +0.000 C 
ATOM      6  C   UNL     1      59.980  64.647  71.307  0.00  0.00    +0.000 C 
ATOM      7  O   UNL     1      59.228  64.306  71.301  0.00  0.00    +0.000 OA
ATOM      8  N   UNL     1      60.491  64.529  70.670  0.00  0.00    +0.000 N 
ATOM      9  C   UNL     1      60.447  64.119  69.955  0.00  0.00    +0.000 C 
ATOM     10  C   UNL     1      61.214  64.361  69.770  0.00  0.00    +0.000 C 
ATOM     11  C   UNL     1      61.257  64.772  70.484  0.00  0.00    +0.000 C 
ATOM     12  O   UNL     1      61.977  64.666  69.699  0.00  0.00    +0.000 OA
ATOM     13  C   UNL     1      62.287  64.411  68.977  0.00  0.00    +0.000 C 
ATOM     14  C   UNL     1      61.715  63.949  68.603  0.00  0.00    +0.000 A 
ATOM     15  C   UNL     1      61.051  63.919  69.093  0.00  0.00    +0.000 A 
ATOM     16  C   UNL     1      60.385  63.492  68.860  0.00  0.00    +0.000 A 
ATOM     17  C   UNL     1      60.382  63.095  68.137  0.00  0.00    +0.000 A 
ATOM     18  C   UNL     1      61.046  63.125  67.646  0.00  0.00    +0.000 A 
ATOM     19  C   UNL     1      61.711  63.552  67.880  0.00  0.00    +0.000 A 
ATOM     20  C   UNL     1      61.043  62.729  66.923  0.00  0.00    +0.000 C 
ATOM     21  N   UNL     1      60.420  62.282  66.618  0.00  0.00    +0.000 NA
ATOM     22  O   UNL     1      60.654  61.986  65.884  0.00  0.00    +0.000 OA
ATOM     23  C   UNL     1      61.421  62.250  65.736  0.00  0.00    +0.000 C 
ATOM     24  C   UNL     1      61.661  62.709  66.378  0.00  0.00    +0.000 C 
ATOM     25  C   UNL     1      61.507  61.887  65.000  0.00  0.00    +0.000 A 
ATOM     26  C   UNL     1      60.889  61.438  64.687  0.00  0.00    +0.000 A 
ATOM     27  C   UNL     1      60.974  61.074  63.952  0.00  0.00    +0.000 A 
ATOM     28 CL   UNL     1      60.356  60.626  63.640  0.00  0.00    +0.000 Cl
ATOM     29  C   UNL     1      61.677  61.159  63.529  0.00  0.00    +0.000 A 
ATOM     30  F   UNL     1      61.762  60.795  62.794  0.00  0.00    +0.000 F 
ATOM     31  C   UNL     1      62.296  61.608  63.841  0.00  0.00    +0.000 A 
ATOM     32 CL   UNL     1      62.998  61.693  63.419  0.00  0.00    +0.000 Cl
ATOM     33  C   UNL     1      62.210  61.971  64.577  0.00  0.00    +0.000 A 
ATOM     34  C   UNL     1      62.118  62.325  65.300  0.00  0.00    +0.000 C 
ATOM     35  F   UNL     1      62.815  62.400  64.865  0.00  0.00    +0.000 F 
ATOM     36  F   UNL     1      62.440  62.796  65.896  0.00  0.00    +0.000 F 
ATOM     37  F   UNL     1      62.492  62.109  64.597  0.00  0.00    +0.000 F 
ENDROOT
TORSDOF 0
ENDMDL
MODEL 2
REMARK VINA RESULT:   -15.865      4.044      7.213
REMARK INTER + INTRA:         -15.865
REMARK INTER:                 -15.865
REMARK INTRA:                   0.000
REMARK UNBOUND:                 0.000
ROOT
REMARK  Name = sarolaner
REMARK                            x       y       z     vdW  Elec       q    Type
REMARK                         _______ _______ _______ _____ _____    ______ ____
ATOM      1  C   UNL     1      62.601  61.740  63.551  0.00  0.00    +0.000 C 
ATOM      2  S   UNL     1      62.287  61.731  64.313  0.00  0.00    +0.000 S 
ATOM      3  O   UNL     1      62.302  60.906  64.310  0.00  0.00    +0.000 OA
ATOM      4  O   UNL     1      62.272  62.555  64.317  0.00  0.00    +0.000 OA
ATOM      5  C   UNL     1      61.973  61.722  65.077  0.00  0.00    +0.000 C 
ATOM      6  C   UNL     1      61.803  62.432  65.461  0.00  0.00    +0.000 C 
ATOM      7  O   UNL     1      61.947  63.151  65.082  0.00  0.00    +0.000 OA
ATOM      8  N   UNL     1      61.489  62.423  66.224  0.00  0.00    +0.000 N 
ATOM      9  C   UNL     1      61.257  63.001  66.765  0.00  0.00    +0.000 C 
ATOM     10  C   UNL     1      61.045  62.411  67.303  0.00  0.00    +0.000 C 
ATOM     11  C   UNL     1      61.278  61.834  66.761  0.00  0.00    +0.000 C 
ATOM     12  O   UNL     1      60.873  61.738  67.748  0.00  0.00    +0.000 OA
ATOM     13  C   UNL     1      60.570  61.985  68.475  0.00  0.00    +0.000 C 
ATOM     14  C   UNL     1      60.554  62.810  68.479  0.00  0.00    +0.000 A 
ATOM     15  C   UNL     1      60.849  63.073  67.753  0.00  0.00    +0.000 A 
ATOM     16  C   UNL     1      60.899  63.882  67.598  0.00  0.00    +0.000 A 
ATOM     17  C   UNL     1      60.656  64.427  68.167  0.00  0.00    +0.000 A 
ATOM     18  C   UNL     1      60.361  64.164  68.892  0.00  0.00    +0.000 A 
ATOM     19  C   UNL     1      60.311  63.356  69.047  0.00  0.00    +0.000 A 
ATOM     20  C   UNL     1      60.118  64.709  69.461  0.00  0.00    +0.000 C 
ATOM     21  N   UNL     1      60.136  65.530  69.384  0.00  0.00    +0.000 NA
ATOM     22  O   UNL     1      59.843  65.858  70.083  0.00  0.00    +0.000 OA
ATOM     23  C   UNL     1      59.644  65.239  70.590  0.00  0.00    +0.000 C 
ATOM     24  C   UNL     1      59.814  64.530  70.206  0.00  0.00    +0.000 C 
ATOM     25  C   UNL     1      59.380  65.710  71.214  0.00  0.00    +0.000 A 
ATOM     26  C   UNL     1      59.394  66.532  71.146  0.00  0.00    +0.000 A 
ATOM     27  C   UNL     1      59.129  67.003  71.770  0.00  0.00    +0.000 A 
ATOM     28 CL   UNL     1      59.144  67.825  71.701  0.00  0.00    +0.000 Cl
ATOM     29  C   UNL     1      58.850  66.651  72.462  0.00  0.00    +0.000 A 
ATOM     30  F   UNL     1      58.586  67.122  73.086  0.00  0.00    +0.000 F 
ATOM     31  C   UNL     1      58.835  65.829  72.531  0.00  0.00    +0.000 A 
ATOM     32 CL   UNL     1      58.557  65.478  73.222  0.00  0.00    +0.000 Cl
ATOM     33  C   UNL     1      59.100  65.358  71.907  0.00  0.00    +0.000 A 
ATOM     34  C   UNL     1      59.362  64.904  71.290  0.00  0.00    +0.000 C 
ATOM     35  F   UNL     1      59.080  64.568  71.988  0.00  0.00    +0.000 F 
ATOM     36  F   UNL     1      59.501  64.150  70.983  0.00  0.00    +0.000 F 
ATOM     37  F   UNL     1      59.052  65.075  72.035  0.00  0.00    +0.000 F 
ENDROOT
TORSDOF 0
ENDMDL
MODEL 3
REMARK VINA RESULT:   -14.837      3.900      7.080
REMARK INTER + INTRA:         -14.837
REMARK INTER:                 -14.837
REMARK INTRA:                   0.000
REMARK UNBOUND:                 0.000
ROOT
REMARK  Name = sarolaner
REMARK                            x       y       z     vdW  Elec       q    Type
REMARK                         _______ _______ _______ _____ _____    ______ ____
ATOM      1  C   UNL     1      61.536  60.784  63.058  0.00  0.00    +0.000 C 
ATOM      2  S   UNL     1      61.218  61.044  63.773  0.00  0.00    +0.000 S 
ATOM      3  O   UNL     1      60.502  60.679  63.587  0.00  0.00    +0.000 OA
ATOM      4  O   UNL     1      61.934  61.408  63.960  0.00  0.00    +0.000 OA
ATOM      5  C   UNL     1      60.899  61.303  64.489  0.00  0.00    +0.000 C 
ATOM      6  C   UNL     1      61.360  61.748  65.008  0.00  0.00    +0.000 C 
ATOM      7  O   UNL     1      62.140  61.935  64.812  0.00  0.00    +0.000 OA
ATOM      8  N   UNL     1      61.042  62.008  65.724  0.00  0.00    +0.000 N 
ATOM      9  C   UNL     1      61.324  62.449  66.362  0.00  0.00    +0.000 C 
ATOM     10  C   UNL     1      60.592  62.375  66.736  0.00  0.00    +0.000 C 
ATOM     11  C   UNL     1      60.310  61.933  66.098  0.00  0.00    +0.000 C 
ATOM     12  O   UNL     1      59.825  62.232  67.005  0.00  0.00    +0.000 OA
ATOM     13  C   UNL     1      59.744  62.591  67.744  0.00  0.00    +0.000 C 
ATOM     14  C   UNL     1      60.460  62.956  67.931  0.00  0.00    +0.000 A 
ATOM     15  C   UNL     1      60.984  62.822  67.307  0.00  0.00    +0.000 A 
ATOM     16  C   UNL     1      61.751  63.125  67.341  0.00  0.00    +0.000 A 
ATOM     17  C   UNL     1      61.994  63.562  67.997  0.00  0.00    +0.000 A 
ATOM     18  C   UNL     1      61.469  63.696  68.621  0.00  0.00    +0.000 A 
ATOM     19  C   UNL     1      60.703  63.393  68.587  0.00  0.00    +0.000 A 
ATOM     20  C   UNL     1      61.711  64.132  69.277  0.00  0.00    +0.000 C 
ATOM     21  N   UNL     1      62.457  64.468  69.387  0.00  0.00    +0.000 NA
ATOM     22  O   UNL     1      62.457  64.853  70.117  0.00  0.00    +0.000 OA
ATOM     23  C   UNL     1      61.713  64.756  70.457  0.00  0.00    +0.000 C 
ATOM     24  C   UNL     1      61.252  64.310  69.938  0.00  0.00    +0.000 C 
ATOM     25  C   UNL     1      61.868  65.178  71.148  0.00  0.00    +0.000 A 
ATOM     26  C   UNL     1      62.611  65.517  71.267  0.00  0.00    +0.000 A 
ATOM     27  C   UNL     1      62.766  65.940  71.959  0.00  0.00    +0.000 A 
ATOM     28 CL   UNL     1      63.509  66.278  72.077  0.00  0.00    +0.000 Cl
ATOM     29  C   UNL     1      62.178  66.024  72.531  0.00  0.00    +0.000 A 
ATOM     30  F   UNL     1      62.334  66.446  73.222  0.00  0.00    +0.000 F 
ATOM     31  C   UNL     1      61.435  65.685  72.413  0.00  0.00    +0.000 A 
ATOM     32 CL   UNL     1      60.848  65.769  72.986  0.00  0.00    +0.000 Cl
ATOM     33  C   UNL     1      61.280  65.262  71.722  0.00  0.00    +0.000 A 
ATOM     34  C   UNL     1      61.136  64.849  71.040  0.00  0.00    +0.000 C 
ATOM     35  F   UNL     1      60.559  64.942  71.623  0.00  0.00    +0.000 F 
ATOM     36  F   UNL     1      60.606  64.411  70.585  0.00  0.00    +0.000 F 
ATOM     37  F   UNL     1      60.981  65.181  71.779  0.00  0.00    +0.000 F 
ENDROOT
TORSDOF 0
ENDMDL
MODEL 4
REMARK VINA RESULT:   -14.801      2.164      2.874
REMARK INTER + INTRA:         -14.801
REMARK INTER:                 -14.801
REMARK INTRA:                   0.000
REMARK UNBOUND:                 0.000
ROOT
REMARK  Name = sarolaner
REMARK                            x       y       z     vdW  Elec       q    Type
REMARK                         _______ _______ _______ _____ _____    ______ ____
ATOM      1  C   UNL     1      63.387  68.309  73.223  0.00  0.00    +0.000 C 
ATOM      2  S   UNL     1      62.834  67.901  72.767  0.00  0.00    +0.000 S 
ATOM      3  O   UNL     1      62.222  68.255  73.192  0.00  0.00    +0.000 OA
ATOM      4  O   UNL     1      63.444  67.547  72.342  0.00  0.00    +0.000 OA
ATOM      5  C   UNL     1      62.279  67.492  72.311  0.00  0.00    +0.000 C 
ATOM      6  C   UNL     1      62.532  66.982  71.715  0.00  0.00    +0.000 C 
ATOM      7  O   UNL     1      63.339  66.879  71.574  0.00  0.00    +0.000 OA
ATOM      8  N   UNL     1      61.979  66.573  71.260  0.00  0.00    +0.000 N 
ATOM      9  C   UNL     1      62.020  66.034  70.636  0.00  0.00    +0.000 C 
ATOM     10  C   UNL     1      61.196  65.996  70.615  0.00  0.00    +0.000 C 
ATOM     11  C   UNL     1      61.154  66.535  71.238  0.00  0.00    +0.000 C 
ATOM     12  O   UNL     1      60.376  66.043  70.692  0.00  0.00    +0.000 OA
ATOM     13  C   UNL     1      60.038  65.545  70.128  0.00  0.00    +0.000 C 
ATOM     14  C   UNL     1      60.649  65.190  69.701  0.00  0.00    +0.000 A 
ATOM     15  C   UNL     1      61.365  65.469  70.003  0.00  0.00    +0.000 A 
ATOM     16  C   UNL     1      62.079  65.208  69.682  0.00  0.00    +0.000 A 
ATOM     17  C   UNL     1      62.076  64.667  69.059  0.00  0.00    +0.000 A 
ATOM     18  C   UNL     1      61.360  64.388  68.757  0.00  0.00    +0.000 A 
ATOM     19  C   UNL     1      60.648  64.650  69.078  0.00  0.00    +0.000 A 
ATOM     20  C   UNL     1      61.358  63.848  68.134  0.00  0.00    +0.000 C 
ATOM     21  N   UNL     1      62.024  63.538  67.758  0.00  0.00    +0.000 NA
ATOM     22  O   UNL     1      61.767  63.021  67.169  0.00  0.00    +0.000 OA
ATOM     23  C   UNL     1      60.942  63.011  67.180  0.00  0.00    +0.000 C 
ATOM     24  C   UNL     1      60.690  63.522  67.776  0.00  0.00    +0.000 C 
ATOM     25  C   UNL     1      60.845  62.473  66.562  0.00  0.00    +0.000 A 
ATOM     26  C   UNL     1      61.506  62.159  66.181  0.00  0.00    +0.000 A 
ATOM     27  C   UNL     1      61.408  61.621  65.563  0.00  0.00    +0.000 A 
ATOM     28 CL   UNL     1      62.070  61.307  65.182  0.00  0.00    +0.000 Cl
ATOM     29  C   UNL     1      60.651  61.397  65.326  0.00  0.00    +0.000 A 
ATOM     30  F   UNL     1      60.554  60.859  64.709  0.00  0.00    +0.000 F 
ATOM     31  C   UNL     1      59.990  61.711  65.707  0.00  0.00    +0.000 A 
ATOM     32 CL   UNL     1      59.232  61.488  65.471  0.00  0.00    +0.000 Cl
ATOM     33  C   UNL     1      60.087  62.249  66.325  0.00  0.00    +0.000 A 
ATOM     34  C   UNL     1      60.191  62.777  66.931  0.00  0.00    +0.000 C 
ATOM     35  F   UNL     1      59.440  62.544  66.682  0.00  0.00    +0.000 F 
ATOM     36  F   UNL     1      59.850  63.265  67.503  0.00  0.00    +0.000 F 
ATOM     37  F   UNL     1      59.784  62.302  66.394  0.00  0.00    +0.000 F 
ENDROOT
TORSDOF 0
ENDMDL
