MODEL 1
REMARK VINA RESULT:   -14.633      0.000      0.000
REMARK INTER + INTRA:         -14.633
REMARK INTER:                 -14.633
REMARK INTRA:                   0.000
REMARK UNBOUND:                 0.000
ROOT
REMARK  Name = sarpogrelate
REMARK                            x       y       z     vdW  Elec       q    Type
REMARK                         _______ _______ _______ _____ _____    ______ ____
ATOM      1  C   UNL     1      58.856  67.587  72.091  0.00  0.00    +0.000 C 
ATOM      2  O   UNL     1      59.001  66.783  72.202  0.00  0.00    +0.000 OA
ATOM      3  C   UNL     1      59.287  66.325  71.579  0.00  0.00    +0.000 A 
ATOM      4  C   UNL     1      59.427  66.672  70.843  0.00  0.00    +0.000 A 
ATOM      5  C   UNL     1      59.713  66.214  70.219  0.00  0.00    +0.000 A 
ATOM      6  C   UNL     1      59.858  65.409  70.331  0.00  0.00    +0.000 A 
ATOM      7  C   UNL     1      59.718  65.062  71.067  0.00  0.00    +0.000 A 
ATOM      8  C   UNL     1      59.863  64.258  71.178  0.00  0.00    +0.000 C 
ATOM      9  C   UNL     1      60.149  63.800  70.554  0.00  0.00    +0.000 C 
ATOM     10  C   UNL     1      60.294  62.995  70.666  0.00  0.00    +0.000 A 
ATOM     11  C   UNL     1      60.579  62.538  70.042  0.00  0.00    +0.000 A 
ATOM     12  O   UNL     1      60.720  62.884  69.307  0.00  0.00    +0.000 OA
ATOM     13  C   UNL     1      61.006  62.426  68.682  0.00  0.00    +0.000 C 
ATOM     14  C   UNL     1      61.147  62.773  67.947  0.00  0.00    +0.000 C 
ATOM     15  C   UNL     1      61.002  63.576  67.836  0.00  0.00    +0.000 C 
ATOM     16  N   UNL     1      60.716  64.035  68.460  0.00  0.00    +0.000 NA
ATOM     17  C   UNL     1      60.575  63.689  69.195  0.00  0.00    +0.000 C 
ATOM     18  C   UNL     1      60.570  64.840  68.348  0.00  0.00    +0.000 C 
ATOM     19  O   UNL     1      61.433  62.315  67.323  0.00  0.00    +0.000 OA
ATOM     20  C   UNL     1      61.573  62.661  66.588  0.00  0.00    +0.000 C 
ATOM     21  O   UNL     1      61.428  63.465  66.476  0.00  0.00    +0.000 OA
ATOM     22  C   UNL     1      61.859  62.203  65.964  0.00  0.00    +0.000 C 
ATOM     23  C   UNL     1      62.000  62.549  65.229  0.00  0.00    +0.000 C 
ATOM     24  C   UNL     1      62.285  62.091  64.605  0.00  0.00    +0.000 C 
ATOM     25  O   UNL     1      62.426  62.438  63.870  0.00  0.00    +0.000 OA
ATOM     26  O   UNL     1      62.430  61.287  64.717  0.00  0.00    +0.000 OA
ATOM     27  C   UNL     1      60.725  61.733  70.154  0.00  0.00    +0.000 A 
ATOM     28  C   UNL     1      60.584  61.387  70.889  0.00  0.00    +0.000 A 
ATOM     29  C   UNL     1      60.298  61.845  71.513  0.00  0.00    +0.000 A 
ATOM     30  C   UNL     1      60.153  62.650  71.401  0.00  0.00    +0.000 A 
ATOM     31  C   UNL     1      59.432  65.520  71.690  0.00  0.00    +0.000 A 
ENDROOT
TORSDOF 0
ENDMDL
MODEL 2
REMARK VINA RESULT:   -14.496      3.331      5.135
REMARK INTER + INTRA:         -14.496
REMARK INTER:                 -14.496
REMARK INTRA:                   0.000
REMARK UNBOUND:                 0.000
ROOT
REMARK  Name = sarpogrelate
REMARK                            x       y       z     vdW  Elec       q    Type
REMARK                         _______ _______ _______ _____ _____    ______ ____
ATOM      1  C   UNL     1      59.397  61.991  65.977  0.00  0.00    +0.000 C 
ATOM      2  O   UNL     1      59.398  61.917  66.798  0.00  0.00    +0.000 OA
ATOM      3  C   UNL     1      59.957  62.323  67.249  0.00  0.00    +0.000 A 
ATOM      4  C   UNL     1      60.516  62.804  66.877  0.00  0.00    +0.000 A 
ATOM      5  C   UNL     1      61.075  63.210  67.327  0.00  0.00    +0.000 A 
ATOM      6  C   UNL     1      61.075  63.135  68.150  0.00  0.00    +0.000 A 
ATOM      7  C   UNL     1      60.517  62.655  68.521  0.00  0.00    +0.000 A 
ATOM      8  C   UNL     1      60.517  62.581  69.342  0.00  0.00    +0.000 C 
ATOM      9  C   UNL     1      61.076  62.987  69.793  0.00  0.00    +0.000 C 
ATOM     10  C   UNL     1      61.077  62.913  70.615  0.00  0.00    +0.000 A 
ATOM     11  C   UNL     1      61.636  63.320  71.064  0.00  0.00    +0.000 A 
ATOM     12  O   UNL     1      62.195  63.799  70.694  0.00  0.00    +0.000 OA
ATOM     13  C   UNL     1      62.754  64.206  71.145  0.00  0.00    +0.000 C 
ATOM     14  C   UNL     1      63.313  64.686  70.773  0.00  0.00    +0.000 C 
ATOM     15  C   UNL     1      63.313  64.760  69.952  0.00  0.00    +0.000 C 
ATOM     16  N   UNL     1      62.753  64.353  69.501  0.00  0.00    +0.000 NA
ATOM     17  C   UNL     1      62.194  63.874  69.872  0.00  0.00    +0.000 C 
ATOM     18  C   UNL     1      62.753  64.428  68.679  0.00  0.00    +0.000 C 
ATOM     19  O   UNL     1      63.872  65.092  71.223  0.00  0.00    +0.000 OA
ATOM     20  C   UNL     1      64.431  65.572  70.852  0.00  0.00    +0.000 C 
ATOM     21  O   UNL     1      64.431  65.646  70.031  0.00  0.00    +0.000 OA
ATOM     22  C   UNL     1      64.990  65.978  71.302  0.00  0.00    +0.000 C 
ATOM     23  C   UNL     1      65.549  66.458  70.932  0.00  0.00    +0.000 C 
ATOM     24  C   UNL     1      66.108  66.864  71.382  0.00  0.00    +0.000 C 
ATOM     25  O   UNL     1      66.667  67.345  71.011  0.00  0.00    +0.000 OA
ATOM     26  O   UNL     1      66.109  66.790  72.203  0.00  0.00    +0.000 OA
ATOM     27  C   UNL     1      61.636  63.245  71.886  0.00  0.00    +0.000 A 
ATOM     28  C   UNL     1      61.077  62.765  72.258  0.00  0.00    +0.000 A 
ATOM     29  C   UNL     1      60.518  62.359  71.808  0.00  0.00    +0.000 A 
ATOM     30  C   UNL     1      60.518  62.433  70.985  0.00  0.00    +0.000 A 
ATOM     31  C   UNL     1      59.957  62.249  68.071  0.00  0.00    +0.000 A 
ENDROOT
TORSDOF 0
ENDMDL
MODEL 3
REMARK VINA RESULT:   -14.131      3.161      3.567
REMARK INTER + INTRA:         -14.131
REMARK INTER:                 -14.131
REMARK INTRA:                   0.000
REMARK UNBOUND:                 0.000
ROOT
REMARK  Name = sarpogrelate
REMARK                            x       y       z     vdW  Elec       q    Type
REMARK                         _______ _______ _______ _____ _____    ______ ____
ATOM      1  C   UNL     1      66.282  67.238  71.399  0.00  0.00    +0.000 C 
ATOM      2  O   UNL     1      65.630  66.911  71.783  0.00  0.00    +0.000 OA
ATOM      3  C   UNL     1      65.074  66.477  71.356  0.00  0.00    +0.000 A 
ATOM      4  C   UNL     1      65.170  66.371  70.543  0.00  0.00    +0.000 A 
ATOM      5  C   UNL     1      64.614  65.937  70.116  0.00  0.00    +0.000 A 
ATOM      6  C   UNL     1      63.962  65.609  70.501  0.00  0.00    +0.000 A 
ATOM      7  C   UNL     1      63.866  65.715  71.313  0.00  0.00    +0.000 A 
ATOM      8  C   UNL     1      63.214  65.387  71.698  0.00  0.00    +0.000 C 
ATOM      9  C   UNL     1      62.658  64.953  71.270  0.00  0.00    +0.000 C 
ATOM     10  C   UNL     1      62.006  64.625  71.656  0.00  0.00    +0.000 A 
ATOM     11  C   UNL     1      61.450  64.192  71.227  0.00  0.00    +0.000 A 
ATOM     12  O   UNL     1      61.545  64.085  70.415  0.00  0.00    +0.000 OA
ATOM     13  C   UNL     1      60.989  63.651  69.987  0.00  0.00    +0.000 C 
ATOM     14  C   UNL     1      61.085  63.545  69.175  0.00  0.00    +0.000 C 
ATOM     15  C   UNL     1      61.736  63.872  68.790  0.00  0.00    +0.000 C 
ATOM     16  N   UNL     1      62.293  64.307  69.218  0.00  0.00    +0.000 NA
ATOM     17  C   UNL     1      62.198  64.413  70.030  0.00  0.00    +0.000 C 
ATOM     18  C   UNL     1      62.945  64.635  68.833  0.00  0.00    +0.000 C 
ATOM     19  O   UNL     1      60.529  63.111  68.747  0.00  0.00    +0.000 OA
ATOM     20  C   UNL     1      60.625  63.004  67.934  0.00  0.00    +0.000 C 
ATOM     21  O   UNL     1      61.276  63.332  67.550  0.00  0.00    +0.000 OA
ATOM     22  C   UNL     1      60.069  62.570  67.507  0.00  0.00    +0.000 C 
ATOM     23  C   UNL     1      60.164  62.464  66.695  0.00  0.00    +0.000 C 
ATOM     24  C   UNL     1      59.608  62.030  66.267  0.00  0.00    +0.000 C 
ATOM     25  O   UNL     1      59.704  61.924  65.455  0.00  0.00    +0.000 OA
ATOM     26  O   UNL     1      58.956  61.702  66.652  0.00  0.00    +0.000 OA
ATOM     27  C   UNL     1      60.798  63.864  71.613  0.00  0.00    +0.000 A 
ATOM     28  C   UNL     1      60.702  63.970  72.425  0.00  0.00    +0.000 A 
ATOM     29  C   UNL     1      61.258  64.404  72.853  0.00  0.00    +0.000 A 
ATOM     30  C   UNL     1      61.910  64.732  72.468  0.00  0.00    +0.000 A 
ATOM     31  C   UNL     1      64.422  66.149  71.741  0.00  0.00    +0.000 A 
ENDROOT
TORSDOF 0
ENDMDL
MODEL 4
REMARK VINA RESULT:   -13.634      1.791      5.515
REMARK INTER + INTRA:         -13.634
REMARK INTER:                 -13.634
REMARK INTRA:                   0.000
REMARK UNBOUND:                 0.000
ROOT
REMARK  Name = sarpogrelate
REMARK                            x       y       z     vdW  Elec       q    Type
REMARK                         _______ _______ _______ _____ _____    ______ ____
ATOM      1  C   UNL     1      61.012  61.723  64.814  0.00  0.00    +0.000 C 
ATOM      2  O   UNL     1      60.849  61.467  65.580  0.00  0.00    +0.000 OA
ATOM      3  C   UNL     1      60.945  61.982  66.217  0.00  0.00    +0.000 A 
ATOM      4  C   UNL     1      61.205  62.755  66.087  0.00  0.00    +0.000 A 
ATOM      5  C   UNL     1      61.301  63.270  66.723  0.00  0.00    +0.000 A 
ATOM      6  C   UNL     1      61.137  63.013  67.491  0.00  0.00    +0.000 A 
ATOM      7  C   UNL     1      60.877  62.241  67.621  0.00  0.00    +0.000 A 
ATOM      8  C   UNL     1      60.714  61.985  68.387  0.00  0.00    +0.000 C 
ATOM      9  C   UNL     1      60.810  62.500  69.024  0.00  0.00    +0.000 C 
ATOM     10  C   UNL     1      60.646  62.243  69.791  0.00  0.00    +0.000 A 
ATOM     11  C   UNL     1      60.743  62.759  70.427  0.00  0.00    +0.000 A 
ATOM     12  O   UNL     1      61.002  63.531  70.298  0.00  0.00    +0.000 OA
ATOM     13  C   UNL     1      61.099  64.047  70.935  0.00  0.00    +0.000 C 
ATOM     14  C   UNL     1      61.359  64.819  70.805  0.00  0.00    +0.000 C 
ATOM     15  C   UNL     1      61.522  65.076  70.039  0.00  0.00    +0.000 C 
ATOM     16  N   UNL     1      61.426  64.560  69.401  0.00  0.00    +0.000 NA
ATOM     17  C   UNL     1      61.166  63.788  69.531  0.00  0.00    +0.000 C 
ATOM     18  C   UNL     1      61.589  64.816  68.634  0.00  0.00    +0.000 C 
ATOM     19  O   UNL     1      61.455  65.335  71.442  0.00  0.00    +0.000 OA
ATOM     20  C   UNL     1      61.715  66.107  71.311  0.00  0.00    +0.000 C 
ATOM     21  O   UNL     1      61.878  66.363  70.545  0.00  0.00    +0.000 OA
ATOM     22  C   UNL     1      61.811  66.623  71.948  0.00  0.00    +0.000 C 
ATOM     23  C   UNL     1      62.070  67.394  71.819  0.00  0.00    +0.000 C 
ATOM     24  C   UNL     1      62.166  67.910  72.455  0.00  0.00    +0.000 C 
ATOM     25  O   UNL     1      62.426  68.682  72.325  0.00  0.00    +0.000 OA
ATOM     26  O   UNL     1      62.003  67.653  73.222  0.00  0.00    +0.000 OA
ATOM     27  C   UNL     1      60.579  62.502  71.194  0.00  0.00    +0.000 A 
ATOM     28  C   UNL     1      60.319  61.730  71.325  0.00  0.00    +0.000 A 
ATOM     29  C   UNL     1      60.223  61.215  70.688  0.00  0.00    +0.000 A 
ATOM     30  C   UNL     1      60.387  61.471  69.921  0.00  0.00    +0.000 A 
ATOM     31  C   UNL     1      60.781  61.726  66.984  0.00  0.00    +0.000 A 
ENDROOT
TORSDOF 0
ENDMDL
MODEL 5
REMARK VINA RESULT:   -12.215      3.633      4.528
REMARK INTER + INTRA:         -12.215
REMARK INTER:                 -12.215
REMARK INTRA:                   0.000
REMARK UNBOUND:                 0.000
ROOT
REMARK  Name = sarpogrelate
REMARK                            x       y       z     vdW  Elec       q    Type
REMARK                         _______ _______ _______ _____ _____    ______ ____
ATOM      1  C   UNL     1      57.128  66.097  73.221  0.00  0.00    +0.000 C 
ATOM      2  O   UNL     1      57.595  65.457  72.991  0.00  0.00    +0.000 OA
ATOM      3  C   UNL     1      58.364  65.584  72.723  0.00  0.00    +0.000 A 
ATOM      4  C   UNL     1      58.667  66.351  72.685  0.00  0.00    +0.000 A 
ATOM      5  C   UNL     1      59.436  66.478  72.416  0.00  0.00    +0.000 A 
ATOM      6  C   UNL     1      59.904  65.838  72.186  0.00  0.00    +0.000 A 
ATOM      7  C   UNL     1      59.601  65.071  72.224  0.00  0.00    +0.000 A 
ATOM      8  C   UNL     1      60.068  64.431  71.994  0.00  0.00    +0.000 C 
ATOM      9  C   UNL     1      60.838  64.558  71.726  0.00  0.00    +0.000 C 
ATOM     10  C   UNL     1      61.305  63.918  71.496  0.00  0.00    +0.000 A 
ATOM     11  C   UNL     1      62.075  64.046  71.227  0.00  0.00    +0.000 A 
ATOM     12  O   UNL     1      62.377  64.812  71.189  0.00  0.00    +0.000 OA
ATOM     13  C   UNL     1      63.148  64.939  70.920  0.00  0.00    +0.000 C 
ATOM     14  C   UNL     1      63.450  65.706  70.882  0.00  0.00    +0.000 C 
ATOM     15  C   UNL     1      62.983  66.345  71.112  0.00  0.00    +0.000 C 
ATOM     16  N   UNL     1      62.212  66.218  71.381  0.00  0.00    +0.000 NA
ATOM     17  C   UNL     1      61.910  65.452  71.419  0.00  0.00    +0.000 C 
ATOM     18  C   UNL     1      61.745  66.858  71.611  0.00  0.00    +0.000 C 
ATOM     19  O   UNL     1      64.220  65.832  70.613  0.00  0.00    +0.000 OA
ATOM     20  C   UNL     1      64.522  66.599  70.575  0.00  0.00    +0.000 C 
ATOM     21  O   UNL     1      64.055  67.239  70.805  0.00  0.00    +0.000 OA
ATOM     22  C   UNL     1      65.291  66.726  70.307  0.00  0.00    +0.000 C 
ATOM     23  C   UNL     1      65.594  67.492  70.268  0.00  0.00    +0.000 C 
ATOM     24  C   UNL     1      66.364  67.619  70.000  0.00  0.00    +0.000 C 
ATOM     25  O   UNL     1      66.666  68.386  69.962  0.00  0.00    +0.000 OA
ATOM     26  O   UNL     1      66.831  66.980  69.770  0.00  0.00    +0.000 OA
ATOM     27  C   UNL     1      62.542  63.405  70.997  0.00  0.00    +0.000 A 
ATOM     28  C   UNL     1      62.240  62.639  71.035  0.00  0.00    +0.000 A 
ATOM     29  C   UNL     1      61.470  62.512  71.304  0.00  0.00    +0.000 A 
ATOM     30  C   UNL     1      61.003  63.152  71.534  0.00  0.00    +0.000 A 
ATOM     31  C   UNL     1      58.832  64.944  72.493  0.00  0.00    +0.000 A 
ENDROOT
TORSDOF 0
ENDMDL
