MODEL 1
REMARK VINA RESULT:    -5.027      0.000      0.000
REMARK INTER + INTRA:          -5.027
REMARK INTER:                  -5.027
REMARK INTRA:                   0.000
REMARK UNBOUND:                 0.000
ROOT
REMARK  Name = selenomethionine
REMARK                            x       y       z     vdW  Elec       q    Type
REMARK                         _______ _______ _______ _____ _____    ______ ____
ATOM      1  C   UNL     1      60.705  62.419  67.575  0.00  0.00    +0.000 C 
ATOM      2 SE   UNL     1      61.191  62.422  66.908  0.00  0.00    +0.000 Se
ATOM      3  C   UNL     1      61.677  62.424  66.242  0.00  0.00    +0.000 C 
ATOM      4  C   UNL     1      61.452  62.008  65.565  0.00  0.00    +0.000 C 
ATOM      5  CA  UNL     1      61.937  62.010  64.899  0.00  0.00    +0.000 C 
ATOM      6  N   UNL     1      62.648  62.429  64.908  0.00  0.00    +0.000 NA
ATOM      7  C   UNL     1      61.712  61.594  64.223  0.00  0.00    +0.000 C 
ATOM      8  O   UNL     1      62.198  61.597  63.556  0.00  0.00    +0.000 OA
ATOM      9  OXT UNL     1      61.002  61.176  64.214  0.00  0.00    +0.000 OA
ENDROOT
TORSDOF 0
ENDMDL
MODEL 2
REMARK VINA RESULT:    -4.831      2.059      2.854
REMARK INTER + INTRA:          -4.831
REMARK INTER:                  -4.831
REMARK INTRA:                   0.000
REMARK UNBOUND:                 0.000
ROOT
REMARK  Name = selenomethionine
REMARK                            x       y       z     vdW  Elec       q    Type
REMARK                         _______ _______ _______ _____ _____    ______ ____
ATOM      1  C   UNL     1      62.391  62.013  64.190  0.00  0.00    +0.000 C 
ATOM      2 SE   UNL     1      62.110  62.252  64.930  0.00  0.00    +0.000 Se
ATOM      3  C   UNL     1      61.831  62.490  65.667  0.00  0.00    +0.000 C 
ATOM      4  C   UNL     1      61.041  62.362  65.871  0.00  0.00    +0.000 C 
ATOM      5  CA  UNL     1      60.761  62.600  66.609  0.00  0.00    +0.000 C 
ATOM      6  N   UNL     1      61.270  62.966  67.144  0.00  0.00    +0.000 NA
ATOM      7  C   UNL     1      59.971  62.473  66.812  0.00  0.00    +0.000 C 
ATOM      8  O   UNL     1      59.691  62.711  67.550  0.00  0.00    +0.000 OA
ATOM      9  OXT UNL     1      59.462  62.107  66.276  0.00  0.00    +0.000 OA
ENDROOT
TORSDOF 0
ENDMDL
MODEL 3
REMARK VINA RESULT:    -4.399      2.882      3.511
REMARK INTER + INTRA:          -4.399
REMARK INTER:                  -4.399
REMARK INTRA:                   0.000
REMARK UNBOUND:                 0.000
ROOT
REMARK  Name = selenomethionine
REMARK                            x       y       z     vdW  Elec       q    Type
REMARK                         _______ _______ _______ _____ _____    ______ ____
ATOM      1  C   UNL     1      60.623  61.829  70.776  0.00  0.00    +0.000 C 
ATOM      2 SE   UNL     1      60.497  61.916  69.965  0.00  0.00    +0.000 Se
ATOM      3  C   UNL     1      60.372  62.004  69.155  0.00  0.00    +0.000 C 
ATOM      4  C   UNL     1      60.862  62.499  68.712  0.00  0.00    +0.000 C 
ATOM      5  CA  UNL     1      60.737  62.586  67.902  0.00  0.00    +0.000 C 
ATOM      6  N   UNL     1      60.122  62.178  67.533  0.00  0.00    +0.000 NA
ATOM      7  C   UNL     1      61.226  63.082  67.459  0.00  0.00    +0.000 C 
ATOM      8  O   UNL     1      61.102  63.169  66.649  0.00  0.00    +0.000 OA
ATOM      9  OXT UNL     1      61.842  63.490  67.828  0.00  0.00    +0.000 OA
ENDROOT
TORSDOF 0
ENDMDL
MODEL 4
REMARK VINA RESULT:    -4.334     17.660     17.930
REMARK INTER + INTRA:          -4.334
REMARK INTER:                  -4.334
REMARK INTRA:                   0.000
REMARK UNBOUND:                 0.000
ROOT
REMARK  Name = selenomethionine
REMARK                            x       y       z     vdW  Elec       q    Type
REMARK                         _______ _______ _______ _____ _____    ______ ____
ATOM      1  C   UNL     1      64.005  79.901  58.460  0.00  0.00    +0.000 C 
ATOM      2 SE   UNL     1      64.706  79.540  58.705  0.00  0.00    +0.000 Se
ATOM      3  C   UNL     1      65.406  79.179  58.949  0.00  0.00    +0.000 C 
ATOM      4  C   UNL     1      65.382  78.450  59.335  0.00  0.00    +0.000 C 
ATOM      5  CA  UNL     1      66.082  78.089  59.579  0.00  0.00    +0.000 C 
ATOM      6  N   UNL     1      66.807  78.457  59.438  0.00  0.00    +0.000 NA
ATOM      7  C   UNL     1      66.059  77.360  59.965  0.00  0.00    +0.000 C 
ATOM      8  O   UNL     1      66.759  76.999  60.209  0.00  0.00    +0.000 OA
ATOM      9  OXT UNL     1      65.334  76.992  60.106  0.00  0.00    +0.000 OA
ENDROOT
TORSDOF 0
ENDMDL
MODEL 5
REMARK VINA RESULT:    -4.260      7.712      8.184
REMARK INTER + INTRA:          -4.260
REMARK INTER:                  -4.260
REMARK INTRA:                   0.000
REMARK UNBOUND:                 0.000
ROOT
REMARK  Name = selenomethionine
REMARK                            x       y       z     vdW  Elec       q    Type
REMARK                         _______ _______ _______ _____ _____    ______ ____
ATOM      1  C   UNL     1      63.274  65.659  69.632  0.00  0.00    +0.000 C 
ATOM      2 SE   UNL     1      63.965  66.107  69.689  0.00  0.00    +0.000 Se
ATOM      3  C   UNL     1      64.655  66.555  69.745  0.00  0.00    +0.000 C 
ATOM      4  C   UNL     1      65.103  66.538  70.438  0.00  0.00    +0.000 C 
ATOM      5  CA  UNL     1      65.793  66.985  70.494  0.00  0.00    +0.000 C 
ATOM      6  N   UNL     1      66.037  67.450  69.858  0.00  0.00    +0.000 NA
ATOM      7  C   UNL     1      66.241  66.968  71.187  0.00  0.00    +0.000 C 
ATOM      8  O   UNL     1      66.931  67.415  71.244  0.00  0.00    +0.000 OA
ATOM      9  OXT UNL     1      65.998  66.503  71.824  0.00  0.00    +0.000 OA
ENDROOT
TORSDOF 0
ENDMDL
MODEL 6
REMARK VINA RESULT:    -4.199      1.948      2.325
REMARK INTER + INTRA:          -4.199
REMARK INTER:                  -4.199
REMARK INTRA:                   0.000
REMARK UNBOUND:                 0.000
ROOT
REMARK  Name = selenomethionine
REMARK                            x       y       z     vdW  Elec       q    Type
REMARK                         _______ _______ _______ _____ _____    ______ ____
ATOM      1  C   UNL     1      61.644  63.787  68.800  0.00  0.00    +0.000 C 
ATOM      2 SE   UNL     1      61.104  63.431  68.286  0.00  0.00    +0.000 Se
ATOM      3  C   UNL     1      60.566  63.076  67.773  0.00  0.00    +0.000 C 
ATOM      4  C   UNL     1      60.834  62.699  67.089  0.00  0.00    +0.000 C 
ATOM      5  CA  UNL     1      60.295  62.344  66.576  0.00  0.00    +0.000 C 
ATOM      6  N   UNL     1      59.488  62.365  66.745  0.00  0.00    +0.000 NA
ATOM      7  C   UNL     1      60.563  61.966  65.893  0.00  0.00    +0.000 C 
ATOM      8  O   UNL     1      60.025  61.611  65.379  0.00  0.00    +0.000 OA
ATOM      9  OXT UNL     1      61.370  61.944  65.724  0.00  0.00    +0.000 OA
ENDROOT
TORSDOF 0
ENDMDL
MODEL 7
REMARK VINA RESULT:    -4.198      4.572      5.638
REMARK INTER + INTRA:          -4.198
REMARK INTER:                  -4.198
REMARK INTRA:                   0.000
REMARK UNBOUND:                 0.000
ROOT
REMARK  Name = selenomethionine
REMARK                            x       y       z     vdW  Elec       q    Type
REMARK                         _______ _______ _______ _____ _____    ______ ____
ATOM      1  C   UNL     1      60.568  62.378  67.602  0.00  0.00    +0.000 C 
ATOM      2 SE   UNL     1      60.514  62.185  68.403  0.00  0.00    +0.000 Se
ATOM      3  C   UNL     1      60.461  61.994  69.203  0.00  0.00    +0.000 C 
ATOM      4  C   UNL     1      60.469  62.591  69.772  0.00  0.00    +0.000 C 
ATOM      5  CA  UNL     1      60.416  62.399  70.572  0.00  0.00    +0.000 C 
ATOM      6  N   UNL     1      60.355  61.610  70.804  0.00  0.00    +0.000 NA
ATOM      7  C   UNL     1      60.425  62.996  71.142  0.00  0.00    +0.000 C 
ATOM      8  O   UNL     1      60.371  62.804  71.942  0.00  0.00    +0.000 OA
ATOM      9  OXT UNL     1      60.486  63.785  70.910  0.00  0.00    +0.000 OA
ENDROOT
TORSDOF 0
ENDMDL
MODEL 8
REMARK VINA RESULT:    -4.172      6.850      7.359
REMARK INTER + INTRA:          -4.172
REMARK INTER:                  -4.172
REMARK INTRA:                   0.000
REMARK UNBOUND:                 0.000
ROOT
REMARK  Name = selenomethionine
REMARK                            x       y       z     vdW  Elec       q    Type
REMARK                         _______ _______ _______ _____ _____    ______ ____
ATOM      1  C   UNL     1      66.307  67.754  69.870  0.00  0.00    +0.000 C 
ATOM      2 SE   UNL     1      65.754  67.251  70.220  0.00  0.00    +0.000 Se
ATOM      3  C   UNL     1      65.201  66.749  70.570  0.00  0.00    +0.000 C 
ATOM      4  C   UNL     1      64.991  66.043  70.200  0.00  0.00    +0.000 C 
ATOM      5  CA  UNL     1      64.439  65.541  70.550  0.00  0.00    +0.000 C 
ATOM      6  N   UNL     1      64.095  65.745  71.271  0.00  0.00    +0.000 NA
ATOM      7  C   UNL     1      64.229  64.834  70.179  0.00  0.00    +0.000 C 
ATOM      8  O   UNL     1      63.677  64.332  70.529  0.00  0.00    +0.000 OA
ATOM      9  OXT UNL     1      64.573  64.630  69.457  0.00  0.00    +0.000 OA
ENDROOT
TORSDOF 0
ENDMDL
MODEL 9
REMARK VINA RESULT:    -4.062     15.968     16.350
REMARK INTER + INTRA:          -4.062
REMARK INTER:                  -4.062
REMARK INTRA:                   0.000
REMARK UNBOUND:                 0.000
ROOT
REMARK  Name = selenomethionine
REMARK                            x       y       z     vdW  Elec       q    Type
REMARK                         _______ _______ _______ _____ _____    ______ ____
ATOM      1  C   UNL     1      57.128  76.992  69.456  0.00  0.00    +0.000 C 
ATOM      2 SE   UNL     1      57.517  76.621  70.083  0.00  0.00    +0.000 Se
ATOM      3  C   UNL     1      57.906  76.252  70.709  0.00  0.00    +0.000 C 
ATOM      4  C   UNL     1      58.285  76.705  71.285  0.00  0.00    +0.000 C 
ATOM      5  CA  UNL     1      58.674  76.335  71.911  0.00  0.00    +0.000 C 
ATOM      6  N   UNL     1      58.684  75.512  71.961  0.00  0.00    +0.000 NA
ATOM      7  C   UNL     1      59.054  76.788  72.487  0.00  0.00    +0.000 C 
ATOM      8  O   UNL     1      59.443  76.418  73.113  0.00  0.00    +0.000 OA
ATOM      9  OXT UNL     1      59.044  77.611  72.436  0.00  0.00    +0.000 OA
ENDROOT
TORSDOF 0
ENDMDL
