MODEL 1
REMARK VINA RESULT:   -15.514      0.000      0.000
REMARK INTER + INTRA:         -15.514
REMARK INTER:                 -15.514
REMARK INTRA:                   0.000
REMARK UNBOUND:                 0.000
ROOT
REMARK  Name = selexipag
REMARK                            x       y       z     vdW  Elec       q    Type
REMARK                         _______ _______ _______ _____ _____    ______ ____
ATOM      1  C   UNL     1      60.147  63.565  69.234  0.00  0.00    +0.000 C 
ATOM      2  C   UNL     1      60.518  64.067  69.774  0.00  0.00    +0.000 C 
ATOM      3  C   UNL     1      60.139  64.264  70.480  0.00  0.00    +0.000 C 
ATOM      4  N   UNL     1      61.265  64.371  69.608  0.00  0.00    +0.000 N 
ATOM      5  C   UNL     1      61.644  64.174  68.902  0.00  0.00    +0.000 C 
ATOM      6  C   UNL     1      61.273  63.672  68.362  0.00  0.00    +0.000 C 
ATOM      7  C   UNL     1      61.652  63.474  67.655  0.00  0.00    +0.000 C 
ATOM      8  C   UNL     1      61.281  62.973  67.116  0.00  0.00    +0.000 C 
ATOM      9  O   UNL     1      61.659  62.775  66.409  0.00  0.00    +0.000 OA
ATOM     10  C   UNL     1      61.288  62.274  65.870  0.00  0.00    +0.000 C 
ATOM     11  C   UNL     1      61.667  62.076  65.163  0.00  0.00    +0.000 C 
ATOM     12  O   UNL     1      62.416  62.380  64.997  0.00  0.00    +0.000 OA
ATOM     13  N   UNL     1      61.296  61.574  64.623  0.00  0.00    +0.000 NA
ATOM     14  S   UNL     1      61.675  61.377  63.917  0.00  0.00    +0.000 S 
ATOM     15  C   UNL     1      62.053  61.180  63.211  0.00  0.00    +0.000 C 
ATOM     16  O   UNL     1      62.321  61.843  64.133  0.00  0.00    +0.000 OA
ATOM     17  O   UNL     1      61.029  60.912  63.701  0.00  0.00    +0.000 OA
ATOM     18  C   UNL     1      61.636  64.873  70.148  0.00  0.00    +0.000 A 
ATOM     19  C   UNL     1      61.258  65.070  70.854  0.00  0.00    +0.000 A 
ATOM     20  N   UNL     1      61.629  65.572  71.394  0.00  0.00    +0.000 NA
ATOM     21  C   UNL     1      62.377  65.876  71.228  0.00  0.00    +0.000 A 
ATOM     22  C   UNL     1      62.747  66.378  71.769  0.00  0.00    +0.000 A 
ATOM     23  C   UNL     1      62.369  66.575  72.474  0.00  0.00    +0.000 A 
ATOM     24  C   UNL     1      62.739  67.077  73.014  0.00  0.00    +0.000 A 
ATOM     25  C   UNL     1      63.489  67.382  72.848  0.00  0.00    +0.000 A 
ATOM     26  C   UNL     1      63.867  67.184  72.142  0.00  0.00    +0.000 A 
ATOM     27  C   UNL     1      63.497  66.683  71.602  0.00  0.00    +0.000 A 
ATOM     28  C   UNL     1      62.755  65.678  70.522  0.00  0.00    +0.000 A 
ATOM     29  N   UNL     1      62.385  65.177  69.982  0.00  0.00    +0.000 NA
ATOM     30  C   UNL     1      63.504  65.983  70.355  0.00  0.00    +0.000 A 
ATOM     31  C   UNL     1      63.874  66.485  70.896  0.00  0.00    +0.000 A 
ATOM     32  C   UNL     1      64.623  66.789  70.730  0.00  0.00    +0.000 A 
ATOM     33  C   UNL     1      65.001  66.592  70.023  0.00  0.00    +0.000 A 
ATOM     34  C   UNL     1      64.631  66.090  69.483  0.00  0.00    +0.000 A 
ATOM     35  C   UNL     1      63.882  65.786  69.650  0.00  0.00    +0.000 A 
ENDROOT
TORSDOF 0
ENDMDL
MODEL 2
REMARK VINA RESULT:   -12.966      3.291      6.760
REMARK INTER + INTRA:         -12.966
REMARK INTER:                 -12.966
REMARK INTRA:                   0.000
REMARK UNBOUND:                 0.000
ROOT
REMARK  Name = selexipag
REMARK                            x       y       z     vdW  Elec       q    Type
REMARK                         _______ _______ _______ _____ _____    ______ ____
ATOM      1  C   UNL     1      61.009  64.843  70.159  0.00  0.00    +0.000 C 
ATOM      2  C   UNL     1      60.695  64.370  69.560  0.00  0.00    +0.000 C 
ATOM      3  C   UNL     1      59.908  64.126  69.598  0.00  0.00    +0.000 C 
ATOM      4  N   UNL     1      61.167  64.143  68.924  0.00  0.00    +0.000 N 
ATOM      5  C   UNL     1      61.954  64.388  68.886  0.00  0.00    +0.000 C 
ATOM      6  C   UNL     1      62.268  64.861  69.485  0.00  0.00    +0.000 C 
ATOM      7  C   UNL     1      63.055  65.106  69.447  0.00  0.00    +0.000 C 
ATOM      8  C   UNL     1      63.369  65.578  70.047  0.00  0.00    +0.000 C 
ATOM      9  O   UNL     1      64.156  65.823  70.009  0.00  0.00    +0.000 OA
ATOM     10  C   UNL     1      64.470  66.296  70.608  0.00  0.00    +0.000 C 
ATOM     11  C   UNL     1      65.257  66.541  70.570  0.00  0.00    +0.000 C 
ATOM     12  O   UNL     1      65.730  66.313  69.933  0.00  0.00    +0.000 OA
ATOM     13  N   UNL     1      65.571  67.014  71.169  0.00  0.00    +0.000 NA
ATOM     14  S   UNL     1      66.358  67.259  71.131  0.00  0.00    +0.000 S 
ATOM     15  C   UNL     1      67.145  67.503  71.093  0.00  0.00    +0.000 C 
ATOM     16  O   UNL     1      66.450  66.854  70.417  0.00  0.00    +0.000 OA
ATOM     17  O   UNL     1      66.266  67.663  71.844  0.00  0.00    +0.000 OA
ATOM     18  C   UNL     1      60.854  63.670  68.325  0.00  0.00    +0.000 A 
ATOM     19  C   UNL     1      60.067  63.426  68.363  0.00  0.00    +0.000 A 
ATOM     20  N   UNL     1      59.753  62.953  67.764  0.00  0.00    +0.000 NA
ATOM     21  C   UNL     1      60.225  62.725  67.127  0.00  0.00    +0.000 A 
ATOM     22  C   UNL     1      59.911  62.252  66.529  0.00  0.00    +0.000 A 
ATOM     23  C   UNL     1      59.124  62.008  66.566  0.00  0.00    +0.000 A 
ATOM     24  C   UNL     1      58.811  61.535  65.968  0.00  0.00    +0.000 A 
ATOM     25  C   UNL     1      59.284  61.307  65.330  0.00  0.00    +0.000 A 
ATOM     26  C   UNL     1      60.070  61.552  65.293  0.00  0.00    +0.000 A 
ATOM     27  C   UNL     1      60.384  62.024  65.891  0.00  0.00    +0.000 A 
ATOM     28  C   UNL     1      61.012  62.971  67.090  0.00  0.00    +0.000 A 
ATOM     29  N   UNL     1      61.326  63.443  67.688  0.00  0.00    +0.000 NA
ATOM     30  C   UNL     1      61.486  62.743  66.453  0.00  0.00    +0.000 A 
ATOM     31  C   UNL     1      61.171  62.270  65.854  0.00  0.00    +0.000 A 
ATOM     32  C   UNL     1      61.644  62.042  65.218  0.00  0.00    +0.000 A 
ATOM     33  C   UNL     1      62.432  62.287  65.180  0.00  0.00    +0.000 A 
ATOM     34  C   UNL     1      62.745  62.760  65.779  0.00  0.00    +0.000 A 
ATOM     35  C   UNL     1      62.272  62.987  66.415  0.00  0.00    +0.000 A 
ENDROOT
TORSDOF 0
ENDMDL
MODEL 3
REMARK VINA RESULT:   -12.696     13.918     15.566
REMARK INTER + INTRA:         -12.696
REMARK INTER:                 -12.696
REMARK INTRA:                   0.000
REMARK UNBOUND:                 0.000
ROOT
REMARK  Name = selexipag
REMARK                            x       y       z     vdW  Elec       q    Type
REMARK                         _______ _______ _______ _____ _____    ______ ____
ATOM      1  C   UNL     1      60.978  64.919  51.790  0.00  0.00    +0.000 C 
ATOM      2  C   UNL     1      60.968  65.690  52.086  0.00  0.00    +0.000 C 
ATOM      3  C   UNL     1      60.577  66.286  51.671  0.00  0.00    +0.000 C 
ATOM      4  N   UNL     1      61.349  65.863  52.796  0.00  0.00    +0.000 N 
ATOM      5  C   UNL     1      61.740  65.267  53.211  0.00  0.00    +0.000 C 
ATOM      6  C   UNL     1      61.750  64.497  52.915  0.00  0.00    +0.000 C 
ATOM      7  C   UNL     1      62.141  63.900  53.330  0.00  0.00    +0.000 C 
ATOM      8  C   UNL     1      62.151  63.131  53.034  0.00  0.00    +0.000 C 
ATOM      9  O   UNL     1      62.542  62.534  53.449  0.00  0.00    +0.000 OA
ATOM     10  C   UNL     1      62.551  61.764  53.153  0.00  0.00    +0.000 C 
ATOM     11  C   UNL     1      62.943  61.167  53.568  0.00  0.00    +0.000 C 
ATOM     12  O   UNL     1      63.324  61.341  54.279  0.00  0.00    +0.000 OA
ATOM     13  N   UNL     1      62.952  60.398  53.272  0.00  0.00    +0.000 NA
ATOM     14  S   UNL     1      63.343  59.801  53.687  0.00  0.00    +0.000 S 
ATOM     15  C   UNL     1      63.734  59.205  54.103  0.00  0.00    +0.000 C 
ATOM     16  O   UNL     1      63.558  60.346  54.269  0.00  0.00    +0.000 OA
ATOM     17  O   UNL     1      63.129  59.256  53.107  0.00  0.00    +0.000 OA
ATOM     18  C   UNL     1      61.340  66.633  53.092  0.00  0.00    +0.000 A 
ATOM     19  C   UNL     1      60.949  67.229  52.677  0.00  0.00    +0.000 A 
ATOM     20  N   UNL     1      60.939  68.000  52.973  0.00  0.00    +0.000 NA
ATOM     21  C   UNL     1      61.320  68.173  53.684  0.00  0.00    +0.000 A 
ATOM     22  C   UNL     1      61.310  68.944  53.980  0.00  0.00    +0.000 A 
ATOM     23  C   UNL     1      60.919  69.540  53.565  0.00  0.00    +0.000 A 
ATOM     24  C   UNL     1      60.910  70.309  53.861  0.00  0.00    +0.000 A 
ATOM     25  C   UNL     1      61.291  70.483  54.572  0.00  0.00    +0.000 A 
ATOM     26  C   UNL     1      61.682  69.887  54.987  0.00  0.00    +0.000 A 
ATOM     27  C   UNL     1      61.692  69.118  54.691  0.00  0.00    +0.000 A 
ATOM     28  C   UNL     1      61.711  67.576  54.099  0.00  0.00    +0.000 A 
ATOM     29  N   UNL     1      61.721  66.807  53.803  0.00  0.00    +0.000 NA
ATOM     30  C   UNL     1      62.093  67.750  54.810  0.00  0.00    +0.000 A 
ATOM     31  C   UNL     1      62.083  68.521  55.106  0.00  0.00    +0.000 A 
ATOM     32  C   UNL     1      62.464  68.694  55.816  0.00  0.00    +0.000 A 
ATOM     33  C   UNL     1      62.855  68.098  56.232  0.00  0.00    +0.000 A 
ATOM     34  C   UNL     1      62.865  67.328  55.935  0.00  0.00    +0.000 A 
ATOM     35  C   UNL     1      62.483  67.154  55.225  0.00  0.00    +0.000 A 
ENDROOT
TORSDOF 0
ENDMDL
