MODEL 1
REMARK VINA RESULT:   -13.939      0.000      0.000
REMARK INTER + INTRA:         -13.939
REMARK INTER:                 -13.939
REMARK INTRA:                   0.000
REMARK UNBOUND:                 0.000
ROOT
REMARK  Name = siccanin
REMARK                            x       y       z     vdW  Elec       q    Type
REMARK                         _______ _______ _______ _____ _____    ______ ____
ATOM      1  C   UNL     1      60.114  64.081  69.858  0.00  0.00    +0.000 C 
ATOM      2  C   UNL     1      60.438  63.782  69.161  0.00  0.00    +0.000 A 
ATOM      3  C   UNL     1      61.240  63.895  68.997  0.00  0.00    +0.000 A 
ATOM      4  C   UNL     1      61.564  63.596  68.300  0.00  0.00    +0.000 A 
ATOM      5  O   UNL     1      62.364  63.708  68.135  0.00  0.00    +0.000 OA
ATOM      6  C   UNL     1      61.088  63.184  67.766  0.00  0.00    +0.000 A 
ATOM      7  C   UNL     1      61.412  62.885  67.069  0.00  0.00    +0.000 C 
ATOM      8  O   UNL     1      62.233  62.790  66.516  0.00  0.00    +0.000 OA
ATOM      9  C   UNL     1      61.919  62.429  66.001  0.00  0.00    +0.000 C 
ATOM     10  C   UNL     1      61.260  62.174  65.839  0.00  0.00    +0.000 C 
ATOM     11  C   UNL     1      62.062  62.287  65.675  0.00  0.00    +0.000 C 
ATOM     12  C   UNL     1      62.386  61.988  64.978  0.00  0.00    +0.000 C 
ATOM     13  C   UNL     1      61.910  61.576  64.445  0.00  0.00    +0.000 C 
ATOM     14  C   UNL     1      61.109  61.463  64.609  0.00  0.00    +0.000 C 
ATOM     15  C   UNL     1      61.162  61.079  63.881  0.00  0.00    +0.000 C 
ATOM     16  C   UNL     1      60.326  61.217  64.520  0.00  0.00    +0.000 C 
ATOM     17  C   UNL     1      60.784  61.762  65.306  0.00  0.00    +0.000 C 
ATOM     18  C   UNL     1      59.984  61.649  65.470  0.00  0.00    +0.000 C 
ATOM     19  C   UNL     1      59.659  61.948  66.167  0.00  0.00    +0.000 C 
ATOM     20  C   UNL     1      60.136  62.360  66.700  0.00  0.00    +0.000 C 
ATOM     21  C   UNL     1      59.335  62.247  66.864  0.00  0.00    +0.000 C 
ATOM     22  O   UNL     1      59.811  62.659  67.397  0.00  0.00    +0.000 OA
ATOM     23  C   UNL     1      60.287  63.071  67.930  0.00  0.00    +0.000 A 
ATOM     24  C   UNL     1      59.962  63.370  68.628  0.00  0.00    +0.000 A 
ATOM     25  C   UNL     1      60.936  62.473  66.536  0.00  0.00    +0.000 C 
ENDROOT
TORSDOF 0
ENDMDL
MODEL 2
REMARK VINA RESULT:   -12.998      0.735      2.075
REMARK INTER + INTRA:         -12.998
REMARK INTER:                 -12.998
REMARK INTRA:                   0.000
REMARK UNBOUND:                 0.000
ROOT
REMARK  Name = siccanin
REMARK                            x       y       z     vdW  Elec       q    Type
REMARK                         _______ _______ _______ _____ _____    ______ ____
ATOM      1  C   UNL     1      60.476  63.557  69.024  0.00  0.00    +0.000 C 
ATOM      2  C   UNL     1      60.469  63.169  68.296  0.00  0.00    +0.000 A 
ATOM      3  C   UNL     1      59.796  62.758  68.054  0.00  0.00    +0.000 A 
ATOM      4  C   UNL     1      59.790  62.370  67.325  0.00  0.00    +0.000 A 
ATOM      5  O   UNL     1      59.118  61.958  67.082  0.00  0.00    +0.000 OA
ATOM      6  C   UNL     1      60.457  62.394  66.839  0.00  0.00    +0.000 A 
ATOM      7  C   UNL     1      60.451  62.006  66.111  0.00  0.00    +0.000 C 
ATOM      8  O   UNL     1      59.924  61.450  65.477  0.00  0.00    +0.000 OA
ATOM      9  C   UNL     1      60.432  61.408  64.994  0.00  0.00    +0.000 C 
ATOM     10  C   UNL     1      61.111  61.643  64.897  0.00  0.00    +0.000 C 
ATOM     11  C   UNL     1      60.438  61.231  64.655  0.00  0.00    +0.000 C 
ATOM     12  C   UNL     1      60.432  60.844  63.926  0.00  0.00    +0.000 C 
ATOM     13  C   UNL     1      61.099  60.868  63.441  0.00  0.00    +0.000 C 
ATOM     14  C   UNL     1      61.772  61.279  63.683  0.00  0.00    +0.000 C 
ATOM     15  C   UNL     1      62.030  61.001  62.951  0.00  0.00    +0.000 C 
ATOM     16  C   UNL     1      62.535  61.594  63.672  0.00  0.00    +0.000 C 
ATOM     17  C   UNL     1      61.778  61.667  64.412  0.00  0.00    +0.000 C 
ATOM     18  C   UNL     1      62.450  62.078  64.654  0.00  0.00    +0.000 C 
ATOM     19  C   UNL     1      62.457  62.466  65.382  0.00  0.00    +0.000 C 
ATOM     20  C   UNL     1      61.790  62.442  65.868  0.00  0.00    +0.000 C 
ATOM     21  C   UNL     1      62.463  62.853  66.110  0.00  0.00    +0.000 C 
ATOM     22  O   UNL     1      61.796  62.829  66.596  0.00  0.00    +0.000 OA
ATOM     23  C   UNL     1      61.130  62.805  67.082  0.00  0.00    +0.000 A 
ATOM     24  C   UNL     1      61.136  63.193  67.811  0.00  0.00    +0.000 A 
ATOM     25  C   UNL     1      61.118  62.030  65.625  0.00  0.00    +0.000 C 
ENDROOT
TORSDOF 0
ENDMDL
MODEL 3
REMARK VINA RESULT:   -12.815      4.873      6.550
REMARK INTER + INTRA:         -12.815
REMARK INTER:                 -12.815
REMARK INTRA:                   0.000
REMARK UNBOUND:                 0.000
ROOT
REMARK  Name = siccanin
REMARK                            x       y       z     vdW  Elec       q    Type
REMARK                         _______ _______ _______ _____ _____    ______ ____
ATOM      1  C   UNL     1      60.889  62.849  71.738  0.00  0.00    +0.000 C 
ATOM      2  C   UNL     1      61.415  63.484  71.742  0.00  0.00    +0.000 A 
ATOM      3  C   UNL     1      61.398  64.031  72.360  0.00  0.00    +0.000 A 
ATOM      4  C   UNL     1      61.924  64.666  72.364  0.00  0.00    +0.000 A 
ATOM      5  O   UNL     1      61.907  65.213  72.982  0.00  0.00    +0.000 OA
ATOM      6  C   UNL     1      62.467  64.756  71.749  0.00  0.00    +0.000 A 
ATOM      7  C   UNL     1      62.993  65.392  71.753  0.00  0.00    +0.000 C 
ATOM      8  O   UNL     1      63.302  66.204  72.235  0.00  0.00    +0.000 OA
ATOM      9  C   UNL     1      63.797  66.370  71.767  0.00  0.00    +0.000 C 
ATOM     10  C   UNL     1      64.062  66.116  71.142  0.00  0.00    +0.000 C 
ATOM     11  C   UNL     1      64.045  66.663  71.760  0.00  0.00    +0.000 C 
ATOM     12  C   UNL     1      64.571  67.298  71.764  0.00  0.00    +0.000 C 
ATOM     13  C   UNL     1      65.114  67.387  71.149  0.00  0.00    +0.000 C 
ATOM     14  C   UNL     1      65.131  66.841  70.531  0.00  0.00    +0.000 C 
ATOM     15  C   UNL     1      65.737  67.349  70.291  0.00  0.00    +0.000 C 
ATOM     16  C   UNL     1      65.359  66.471  69.829  0.00  0.00    +0.000 C 
ATOM     17  C   UNL     1      64.606  66.206  70.527  0.00  0.00    +0.000 C 
ATOM     18  C   UNL     1      64.623  65.660  69.909  0.00  0.00    +0.000 C 
ATOM     19  C   UNL     1      64.097  65.024  69.906  0.00  0.00    +0.000 C 
ATOM     20  C   UNL     1      63.554  64.935  70.520  0.00  0.00    +0.000 C 
ATOM     21  C   UNL     1      63.571  64.389  69.902  0.00  0.00    +0.000 C 
ATOM     22  O   UNL     1      63.028  64.300  70.517  0.00  0.00    +0.000 OA
ATOM     23  C   UNL     1      62.485  64.210  71.131  0.00  0.00    +0.000 A 
ATOM     24  C   UNL     1      61.958  63.574  71.127  0.00  0.00    +0.000 A 
ATOM     25  C   UNL     1      63.537  65.481  71.138  0.00  0.00    +0.000 C 
ENDROOT
TORSDOF 0
ENDMDL
MODEL 4
REMARK VINA RESULT:   -12.703      2.113      5.032
REMARK INTER + INTRA:         -12.703
REMARK INTER:                 -12.703
REMARK INTRA:                   0.000
REMARK UNBOUND:                 0.000
ROOT
REMARK  Name = siccanin
REMARK                            x       y       z     vdW  Elec       q    Type
REMARK                         _______ _______ _______ _____ _____    ______ ____
ATOM      1  C   UNL     1      59.950  62.222  66.715  0.00  0.00    +0.000 C 
ATOM      2  C   UNL     1      60.195  62.533  67.438  0.00  0.00    +0.000 A 
ATOM      3  C   UNL     1      60.419  63.326  67.492  0.00  0.00    +0.000 A 
ATOM      4  C   UNL     1      60.665  63.637  68.215  0.00  0.00    +0.000 A 
ATOM      5  O   UNL     1      60.889  64.428  68.270  0.00  0.00    +0.000 OA
ATOM      6  C   UNL     1      60.687  63.155  68.886  0.00  0.00    +0.000 A 
ATOM      7  C   UNL     1      60.932  63.466  69.610  0.00  0.00    +0.000 C 
ATOM      8  O   UNL     1      61.256  64.272  70.094  0.00  0.00    +0.000 OA
ATOM      9  C   UNL     1      61.310  63.952  70.717  0.00  0.00    +0.000 C 
ATOM     10  C   UNL     1      61.199  63.295  71.003  0.00  0.00    +0.000 C 
ATOM     11  C   UNL     1      61.423  64.088  71.057  0.00  0.00    +0.000 C 
ATOM     12  C   UNL     1      61.668  64.399  71.780  0.00  0.00    +0.000 C 
ATOM     13  C   UNL     1      61.690  63.917  72.450  0.00  0.00    +0.000 C 
ATOM     14  C   UNL     1      61.466  63.125  72.396  0.00  0.00    +0.000 C 
ATOM     15  C   UNL     1      61.656  63.166  73.198  0.00  0.00    +0.000 C 
ATOM     16  C   UNL     1      61.308  62.347  72.621  0.00  0.00    +0.000 C 
ATOM     17  C   UNL     1      61.220  62.814  71.673  0.00  0.00    +0.000 C 
ATOM     18  C   UNL     1      60.996  62.022  71.619  0.00  0.00    +0.000 C 
ATOM     19  C   UNL     1      60.751  61.711  70.895  0.00  0.00    +0.000 C 
ATOM     20  C   UNL     1      60.729  62.193  70.225  0.00  0.00    +0.000 C 
ATOM     21  C   UNL     1      60.505  61.400  70.171  0.00  0.00    +0.000 C 
ATOM     22  O   UNL     1      60.484  61.882  69.502  0.00  0.00    +0.000 OA
ATOM     23  C   UNL     1      60.462  62.362  68.832  0.00  0.00    +0.000 A 
ATOM     24  C   UNL     1      60.217  62.051  68.108  0.00  0.00    +0.000 A 
ATOM     25  C   UNL     1      60.953  62.984  70.279  0.00  0.00    +0.000 C 
ENDROOT
TORSDOF 0
ENDMDL
MODEL 5
REMARK VINA RESULT:   -12.675      5.078      6.701
REMARK INTER + INTRA:         -12.675
REMARK INTER:                 -12.675
REMARK INTRA:                   0.000
REMARK UNBOUND:                 0.000
ROOT
REMARK  Name = siccanin
REMARK                            x       y       z     vdW  Elec       q    Type
REMARK                         _______ _______ _______ _____ _____    ______ ____
ATOM      1  C   UNL     1      66.324  67.606  69.918  0.00  0.00    +0.000 C 
ATOM      2  C   UNL     1      65.692  67.249  70.309  0.00  0.00    +0.000 A 
ATOM      3  C   UNL     1      65.374  67.600  70.985  0.00  0.00    +0.000 A 
ATOM      4  C   UNL     1      64.741  67.244  71.376  0.00  0.00    +0.000 A 
ATOM      5  O   UNL     1      64.423  67.594  72.052  0.00  0.00    +0.000 OA
ATOM      6  C   UNL     1      64.426  66.535  71.092  0.00  0.00    +0.000 A 
ATOM      7  C   UNL     1      63.794  66.178  71.483  0.00  0.00    +0.000 C 
ATOM      8  O   UNL     1      63.160  66.233  72.247  0.00  0.00    +0.000 OA
ATOM      9  C   UNL     1      62.823  65.637  72.091  0.00  0.00    +0.000 C 
ATOM     10  C   UNL     1      62.847  65.113  71.590  0.00  0.00    +0.000 C 
ATOM     11  C   UNL     1      62.529  65.465  72.266  0.00  0.00    +0.000 C 
ATOM     12  C   UNL     1      61.896  65.108  72.657  0.00  0.00    +0.000 C 
ATOM     13  C   UNL     1      61.582  64.400  72.373  0.00  0.00    +0.000 C 
ATOM     14  C   UNL     1      61.900  64.049  71.697  0.00  0.00    +0.000 C 
ATOM     15  C   UNL     1      61.306  63.504  71.876  0.00  0.00    +0.000 C 
ATOM     16  C   UNL     1      62.012  63.509  71.083  0.00  0.00    +0.000 C 
ATOM     17  C   UNL     1      62.533  64.406  71.306  0.00  0.00    +0.000 C 
ATOM     18  C   UNL     1      62.851  64.055  70.630  0.00  0.00    +0.000 C 
ATOM     19  C   UNL     1      63.483  64.412  70.239  0.00  0.00    +0.000 C 
ATOM     20  C   UNL     1      63.797  65.120  70.524  0.00  0.00    +0.000 C 
ATOM     21  C   UNL     1      64.116  64.769  69.848  0.00  0.00    +0.000 C 
ATOM     22  O   UNL     1      64.430  65.477  70.132  0.00  0.00    +0.000 OA
ATOM     23  C   UNL     1      64.744  66.184  70.416  0.00  0.00    +0.000 A 
ATOM     24  C   UNL     1      65.378  66.541  70.025  0.00  0.00    +0.000 A 
ATOM     25  C   UNL     1      63.479  65.470  71.199  0.00  0.00    +0.000 C 
ENDROOT
TORSDOF 0
ENDMDL
MODEL 6
REMARK VINA RESULT:   -11.625      2.415      5.679
REMARK INTER + INTRA:         -11.625
REMARK INTER:                 -11.625
REMARK INTRA:                   0.000
REMARK UNBOUND:                 0.000
ROOT
REMARK  Name = siccanin
REMARK                            x       y       z     vdW  Elec       q    Type
REMARK                         _______ _______ _______ _____ _____    ______ ____
ATOM      1  C   UNL     1      60.702  62.004  67.599  0.00  0.00    +0.000 C 
ATOM      2  C   UNL     1      60.821  62.351  68.338  0.00  0.00    +0.000 A 
ATOM      3  C   UNL     1      60.486  62.012  69.012  0.00  0.00    +0.000 A 
ATOM      4  C   UNL     1      60.605  62.360  69.751  0.00  0.00    +0.000 A 
ATOM      5  O   UNL     1      60.271  62.022  70.425  0.00  0.00    +0.000 OA
ATOM      6  C   UNL     1      61.058  63.048  69.816  0.00  0.00    +0.000 A 
ATOM      7  C   UNL     1      61.176  63.395  70.554  0.00  0.00    +0.000 C 
ATOM      8  O   UNL     1      60.989  63.345  71.529  0.00  0.00    +0.000 OA
ATOM      9  C   UNL     1      61.353  63.922  71.693  0.00  0.00    +0.000 C 
ATOM     10  C   UNL     1      61.748  64.430  71.357  0.00  0.00    +0.000 C 
ATOM     11  C   UNL     1      61.413  64.091  72.031  0.00  0.00    +0.000 C 
ATOM     12  C   UNL     1      61.532  64.439  72.770  0.00  0.00    +0.000 C 
ATOM     13  C   UNL     1      61.985  65.125  72.834  0.00  0.00    +0.000 C 
ATOM     14  C   UNL     1      62.319  65.464  72.160  0.00  0.00    +0.000 C 
ATOM     15  C   UNL     1      62.586  65.994  72.735  0.00  0.00    +0.000 C 
ATOM     16  C   UNL     1      62.746  65.987  71.685  0.00  0.00    +0.000 C 
ATOM     17  C   UNL     1      62.201  65.117  71.422  0.00  0.00    +0.000 C 
ATOM     18  C   UNL     1      62.535  65.455  70.748  0.00  0.00    +0.000 C 
ATOM     19  C   UNL     1      62.416  65.107  70.009  0.00  0.00    +0.000 C 
ATOM     20  C   UNL     1      61.963  64.420  69.945  0.00  0.00    +0.000 C 
ATOM     21  C   UNL     1      62.298  64.759  69.271  0.00  0.00    +0.000 C 
ATOM     22  O   UNL     1      61.845  64.073  69.207  0.00  0.00    +0.000 OA
ATOM     23  C   UNL     1      61.392  63.387  69.142  0.00  0.00    +0.000 A 
ATOM     24  C   UNL     1      61.274  63.038  68.402  0.00  0.00    +0.000 A 
ATOM     25  C   UNL     1      61.629  64.082  70.619  0.00  0.00    +0.000 C 
ENDROOT
TORSDOF 0
ENDMDL
MODEL 7
REMARK VINA RESULT:   -11.185     24.643     25.755
REMARK INTER + INTRA:         -11.185
REMARK INTER:                 -11.185
REMARK INTRA:                   0.000
REMARK UNBOUND:                 0.000
ROOT
REMARK  Name = siccanin
REMARK                            x       y       z     vdW  Elec       q    Type
REMARK                         _______ _______ _______ _____ _____    ______ ____
ATOM      1  C   UNL     1      68.415  81.346  52.891  0.00  0.00    +0.000 C 
ATOM      2  C   UNL     1      68.794  80.940  52.282  0.00  0.00    +0.000 A 
ATOM      3  C   UNL     1      68.371  80.408  51.814  0.00  0.00    +0.000 A 
ATOM      4  C   UNL     1      68.750  80.001  51.205  0.00  0.00    +0.000 A 
ATOM      5  O   UNL     1      68.328  79.469  50.737  0.00  0.00    +0.000 OA
ATOM      6  C   UNL     1      69.553  80.128  51.061  0.00  0.00    +0.000 A 
ATOM      7  C   UNL     1      69.933  79.721  50.452  0.00  0.00    +0.000 C 
ATOM      8  O   UNL     1      69.836  79.060  49.716  0.00  0.00    +0.000 OA
ATOM      9  C   UNL     1      70.507  79.093  49.513  0.00  0.00    +0.000 C 
ATOM     10  C   UNL     1      71.115  79.442  49.700  0.00  0.00    +0.000 C 
ATOM     11  C   UNL     1      70.691  78.909  49.232  0.00  0.00    +0.000 C 
ATOM     12  C   UNL     1      71.070  78.503  48.623  0.00  0.00    +0.000 C 
ATOM     13  C   UNL     1      71.873  78.630  48.480  0.00  0.00    +0.000 C 
ATOM     14  C   UNL     1      72.297  79.162  48.947  0.00  0.00    +0.000 C 
ATOM     15  C   UNL     1      72.895  78.910  48.438  0.00  0.00    +0.000 C 
ATOM     16  C   UNL     1      72.928  79.607  49.237  0.00  0.00    +0.000 C 
ATOM     17  C   UNL     1      71.918  79.568  49.557  0.00  0.00    +0.000 C 
ATOM     18  C   UNL     1      72.341  80.100  50.024  0.00  0.00    +0.000 C 
ATOM     19  C   UNL     1      71.961  80.506  50.633  0.00  0.00    +0.000 C 
ATOM     20  C   UNL     1      71.158  80.380  50.776  0.00  0.00    +0.000 C 
ATOM     21  C   UNL     1      71.582  80.912  51.243  0.00  0.00    +0.000 C 
ATOM     22  O   UNL     1      70.779  80.786  51.386  0.00  0.00    +0.000 OA
ATOM     23  C   UNL     1      69.977  80.660  51.529  0.00  0.00    +0.000 A 
ATOM     24  C   UNL     1      69.597  81.067  52.139  0.00  0.00    +0.000 A 
ATOM     25  C   UNL     1      70.735  79.848  50.309  0.00  0.00    +0.000 C 
ENDROOT
TORSDOF 0
ENDMDL
MODEL 8
REMARK VINA RESULT:   -11.120      4.243      6.118
REMARK INTER + INTRA:         -11.120
REMARK INTER:                 -11.120
REMARK INTRA:                   0.000
REMARK UNBOUND:                 0.000
ROOT
REMARK  Name = siccanin
REMARK                            x       y       z     vdW  Elec       q    Type
REMARK                         _______ _______ _______ _____ _____    ______ ____
ATOM      1  C   UNL     1      61.623  61.227  71.714  0.00  0.00    +0.000 C 
ATOM      2  C   UNL     1      61.311  61.953  71.476  0.00  0.00    +0.000 A 
ATOM      3  C   UNL     1      61.056  62.056  70.698  0.00  0.00    +0.000 A 
ATOM      4  C   UNL     1      60.744  62.781  70.459  0.00  0.00    +0.000 A 
ATOM      5  O   UNL     1      60.489  62.886  69.682  0.00  0.00    +0.000 OA
ATOM      6  C   UNL     1      60.686  63.404  70.999  0.00  0.00    +0.000 A 
ATOM      7  C   UNL     1      60.374  64.129  70.760  0.00  0.00    +0.000 C 
ATOM      8  O   UNL     1      59.985  64.653  70.010  0.00  0.00    +0.000 OA
ATOM      9  C   UNL     1      59.893  65.239  70.385  0.00  0.00    +0.000 C 
ATOM     10  C   UNL     1      60.004  65.476  71.061  0.00  0.00    +0.000 C 
ATOM     11  C   UNL     1      59.749  65.580  70.283  0.00  0.00    +0.000 C 
ATOM     12  C   UNL     1      59.437  66.305  70.044  0.00  0.00    +0.000 C 
ATOM     13  C   UNL     1      59.380  66.927  70.584  0.00  0.00    +0.000 C 
ATOM     14  C   UNL     1      59.635  66.823  71.362  0.00  0.00    +0.000 C 
ATOM     15  C   UNL     1      59.380  67.607  71.398  0.00  0.00    +0.000 C 
ATOM     16  C   UNL     1      59.801  66.992  72.153  0.00  0.00    +0.000 C 
ATOM     17  C   UNL     1      59.947  66.098  71.601  0.00  0.00    +0.000 C 
ATOM     18  C   UNL     1      60.202  65.994  72.378  0.00  0.00    +0.000 C 
ATOM     19  C   UNL     1      60.514  65.269  72.617  0.00  0.00    +0.000 C 
ATOM     20  C   UNL     1      60.571  64.647  72.077  0.00  0.00    +0.000 C 
ATOM     21  C   UNL     1      60.826  64.544  72.855  0.00  0.00    +0.000 C 
ATOM     22  O   UNL     1      60.884  63.922  72.316  0.00  0.00    +0.000 OA
ATOM     23  C   UNL     1      60.941  63.300  71.777  0.00  0.00    +0.000 A 
ATOM     24  C   UNL     1      61.254  62.574  72.016  0.00  0.00    +0.000 A 
ATOM     25  C   UNL     1      60.317  64.751  71.300  0.00  0.00    +0.000 C 
ENDROOT
TORSDOF 0
ENDMDL
