MODEL 1
REMARK VINA RESULT:   -13.099      0.000      0.000
REMARK INTER + INTRA:         -13.099
REMARK INTER:                 -13.099
REMARK INTRA:                   0.000
REMARK UNBOUND:                 0.000
ROOT
REMARK  Name = simetride
REMARK                            x       y       z     vdW  Elec       q    Type
REMARK                         _______ _______ _______ _____ _____    ______ ____
ATOM      1  C   UNL     1      61.266  59.748  61.605  0.00  0.00    +0.000 C 
ATOM      2  C   UNL     1      61.015  60.123  62.296  0.00  0.00    +0.000 C 
ATOM      3  C   UNL     1      61.563  60.500  62.782  0.00  0.00    +0.000 C 
ATOM      4  C   UNL     1      61.312  60.875  63.474  0.00  0.00    +0.000 A 
ATOM      5  C   UNL     1      61.861  61.252  63.961  0.00  0.00    +0.000 A 
ATOM      6  C   UNL     1      61.610  61.628  64.651  0.00  0.00    +0.000 A 
ATOM      7  O   UNL     1      62.158  62.005  65.139  0.00  0.00    +0.000 OA
ATOM      8  C   UNL     1      61.908  62.379  65.829  0.00  0.00    +0.000 C 
ATOM      9  C   UNL     1      60.810  61.626  64.855  0.00  0.00    +0.000 A 
ATOM     10  O   UNL     1      60.560  62.000  65.545  0.00  0.00    +0.000 OA
ATOM     11  C   UNL     1      59.760  61.999  65.749  0.00  0.00    +0.000 C 
ATOM     12  C   UNL     1      59.509  62.374  66.439  0.00  0.00    +0.000 C 
ATOM     13  O   UNL     1      58.710  62.372  66.642  0.00  0.00    +0.000 OA
ATOM     14  N   UNL     1      60.058  62.751  66.926  0.00  0.00    +0.000 N 
ATOM     15  C   UNL     1      60.858  62.753  66.723  0.00  0.00    +0.000 C 
ATOM     16  C   UNL     1      61.406  63.130  67.210  0.00  0.00    +0.000 C 
ATOM     17  N   UNL     1      61.155  63.505  67.900  0.00  0.00    +0.000 N 
ATOM     18  C   UNL     1      60.356  63.503  68.104  0.00  0.00    +0.000 C 
ATOM     19  C   UNL     1      59.807  63.126  67.617  0.00  0.00    +0.000 C 
ATOM     20  C   UNL     1      61.704  63.882  68.388  0.00  0.00    +0.000 C 
ATOM     21  O   UNL     1      62.503  63.884  68.184  0.00  0.00    +0.000 OA
ATOM     22  C   UNL     1      61.453  64.258  69.079  0.00  0.00    +0.000 C 
ATOM     23  O   UNL     1      62.002  64.634  69.566  0.00  0.00    +0.000 OA
ATOM     24  C   UNL     1      61.750  65.010  70.257  0.00  0.00    +0.000 A 
ATOM     25  C   UNL     1      62.300  65.387  70.744  0.00  0.00    +0.000 A 
ATOM     26  C   UNL     1      62.049  65.762  71.435  0.00  0.00    +0.000 A 
ATOM     27  C   UNL     1      61.249  65.760  71.637  0.00  0.00    +0.000 A 
ATOM     28  C   UNL     1      60.998  66.135  72.328  0.00  0.00    +0.000 C 
ATOM     29  C   UNL     1      60.199  66.133  72.532  0.00  0.00    +0.000 C 
ATOM     30  C   UNL     1      59.948  66.509  73.222  0.00  0.00    +0.000 C 
ATOM     31  C   UNL     1      60.701  65.383  71.151  0.00  0.00    +0.000 A 
ATOM     32  C   UNL     1      60.951  65.008  70.460  0.00  0.00    +0.000 A 
ATOM     33  O   UNL     1      60.402  64.631  69.973  0.00  0.00    +0.000 OA
ATOM     34  C   UNL     1      60.653  64.255  69.282  0.00  0.00    +0.000 C 
ATOM     35  C   UNL     1      60.262  61.249  64.367  0.00  0.00    +0.000 A 
ATOM     36  C   UNL     1      60.513  60.873  63.677  0.00  0.00    +0.000 A 
ENDROOT
TORSDOF 0
ENDMDL
MODEL 2
REMARK VINA RESULT:   -12.571     13.673     15.457
REMARK INTER + INTRA:         -12.571
REMARK INTER:                 -12.571
REMARK INTRA:                   0.000
REMARK UNBOUND:                 0.000
ROOT
REMARK  Name = simetride
REMARK                            x       y       z     vdW  Elec       q    Type
REMARK                         _______ _______ _______ _____ _____    ______ ____
ATOM      1  C   UNL     1      61.482  70.593  54.844  0.00  0.00    +0.000 C 
ATOM      2  C   UNL     1      61.420  69.828  54.541  0.00  0.00    +0.000 C 
ATOM      3  C   UNL     1      61.900  69.227  54.838  0.00  0.00    +0.000 C 
ATOM      4  C   UNL     1      61.838  68.461  54.535  0.00  0.00    +0.000 A 
ATOM      5  C   UNL     1      62.318  67.860  54.832  0.00  0.00    +0.000 A 
ATOM      6  C   UNL     1      62.256  67.095  54.530  0.00  0.00    +0.000 A 
ATOM      7  O   UNL     1      62.735  66.493  54.826  0.00  0.00    +0.000 OA
ATOM      8  C   UNL     1      62.673  65.729  54.524  0.00  0.00    +0.000 C 
ATOM      9  C   UNL     1      61.713  66.932  53.929  0.00  0.00    +0.000 A 
ATOM     10  O   UNL     1      61.651  66.168  53.626  0.00  0.00    +0.000 OA
ATOM     11  C   UNL     1      61.110  66.004  53.026  0.00  0.00    +0.000 C 
ATOM     12  C   UNL     1      61.048  65.239  52.723  0.00  0.00    +0.000 C 
ATOM     13  O   UNL     1      60.505  65.076  52.123  0.00  0.00    +0.000 OA
ATOM     14  N   UNL     1      61.527  64.638  53.020  0.00  0.00    +0.000 N 
ATOM     15  C   UNL     1      62.070  64.801  53.621  0.00  0.00    +0.000 C 
ATOM     16  C   UNL     1      62.549  64.200  53.918  0.00  0.00    +0.000 C 
ATOM     17  N   UNL     1      62.487  63.435  53.615  0.00  0.00    +0.000 N 
ATOM     18  C   UNL     1      61.945  63.271  53.015  0.00  0.00    +0.000 C 
ATOM     19  C   UNL     1      61.465  63.873  52.718  0.00  0.00    +0.000 C 
ATOM     20  C   UNL     1      62.967  62.832  53.912  0.00  0.00    +0.000 C 
ATOM     21  O   UNL     1      63.509  62.996  54.513  0.00  0.00    +0.000 OA
ATOM     22  C   UNL     1      62.905  62.068  53.610  0.00  0.00    +0.000 C 
ATOM     23  O   UNL     1      63.385  61.467  53.907  0.00  0.00    +0.000 OA
ATOM     24  C   UNL     1      63.323  60.701  53.603  0.00  0.00    +0.000 A 
ATOM     25  C   UNL     1      63.803  60.099  53.901  0.00  0.00    +0.000 A 
ATOM     26  C   UNL     1      63.741  59.335  53.598  0.00  0.00    +0.000 A 
ATOM     27  C   UNL     1      63.199  59.172  52.998  0.00  0.00    +0.000 A 
ATOM     28  C   UNL     1      63.136  58.407  52.695  0.00  0.00    +0.000 C 
ATOM     29  C   UNL     1      62.595  58.243  52.095  0.00  0.00    +0.000 C 
ATOM     30  C   UNL     1      62.533  57.478  51.792  0.00  0.00    +0.000 C 
ATOM     31  C   UNL     1      62.719  59.773  52.701  0.00  0.00    +0.000 A 
ATOM     32  C   UNL     1      62.781  60.538  53.004  0.00  0.00    +0.000 A 
ATOM     33  O   UNL     1      62.301  61.139  52.706  0.00  0.00    +0.000 OA
ATOM     34  C   UNL     1      62.363  61.905  53.009  0.00  0.00    +0.000 C 
ATOM     35  C   UNL     1      61.234  67.534  53.632  0.00  0.00    +0.000 A 
ATOM     36  C   UNL     1      61.296  68.298  53.935  0.00  0.00    +0.000 A 
ENDROOT
TORSDOF 0
ENDMDL
MODEL 3
REMARK VINA RESULT:   -12.328     13.570     14.271
REMARK INTER + INTRA:         -12.328
REMARK INTER:                 -12.328
REMARK INTRA:                   0.000
REMARK UNBOUND:                 0.000
ROOT
REMARK  Name = simetride
REMARK                            x       y       z     vdW  Elec       q    Type
REMARK                         _______ _______ _______ _____ _____    ______ ____
ATOM      1  C   UNL     1      63.903  58.659  53.095  0.00  0.00    +0.000 C 
ATOM      2  C   UNL     1      63.541  59.396  53.016  0.00  0.00    +0.000 C 
ATOM      3  C   UNL     1      63.776  60.024  53.496  0.00  0.00    +0.000 C 
ATOM      4  C   UNL     1      63.414  60.762  53.416  0.00  0.00    +0.000 A 
ATOM      5  C   UNL     1      63.649  61.391  53.896  0.00  0.00    +0.000 A 
ATOM      6  C   UNL     1      63.288  62.128  53.817  0.00  0.00    +0.000 A 
ATOM      7  O   UNL     1      63.522  62.757  54.296  0.00  0.00    +0.000 OA
ATOM      8  C   UNL     1      63.161  63.493  54.217  0.00  0.00    +0.000 C 
ATOM      9  C   UNL     1      62.691  62.237  53.256  0.00  0.00    +0.000 A 
ATOM     10  O   UNL     1      62.330  62.974  53.177  0.00  0.00    +0.000 OA
ATOM     11  C   UNL     1      61.734  63.083  52.617  0.00  0.00    +0.000 C 
ATOM     12  C   UNL     1      61.373  63.820  52.537  0.00  0.00    +0.000 C 
ATOM     13  O   UNL     1      60.777  63.928  51.977  0.00  0.00    +0.000 OA
ATOM     14  N   UNL     1      61.607  64.448  53.017  0.00  0.00    +0.000 N 
ATOM     15  C   UNL     1      62.203  64.340  53.577  0.00  0.00    +0.000 C 
ATOM     16  C   UNL     1      62.438  64.968  54.057  0.00  0.00    +0.000 C 
ATOM     17  N   UNL     1      62.077  65.705  53.978  0.00  0.00    +0.000 N 
ATOM     18  C   UNL     1      61.481  65.815  53.418  0.00  0.00    +0.000 C 
ATOM     19  C   UNL     1      61.246  65.185  52.937  0.00  0.00    +0.000 C 
ATOM     20  C   UNL     1      62.311  66.334  54.458  0.00  0.00    +0.000 C 
ATOM     21  O   UNL     1      62.907  66.225  55.018  0.00  0.00    +0.000 OA
ATOM     22  C   UNL     1      61.950  67.072  54.378  0.00  0.00    +0.000 C 
ATOM     23  O   UNL     1      62.185  67.700  54.858  0.00  0.00    +0.000 OA
ATOM     24  C   UNL     1      61.823  68.438  54.778  0.00  0.00    +0.000 A 
ATOM     25  C   UNL     1      62.058  69.066  55.259  0.00  0.00    +0.000 A 
ATOM     26  C   UNL     1      61.696  69.803  55.179  0.00  0.00    +0.000 A 
ATOM     27  C   UNL     1      61.100  69.911  54.619  0.00  0.00    +0.000 A 
ATOM     28  C   UNL     1      60.739  70.649  54.539  0.00  0.00    +0.000 C 
ATOM     29  C   UNL     1      60.143  70.758  53.980  0.00  0.00    +0.000 C 
ATOM     30  C   UNL     1      59.781  71.496  53.900  0.00  0.00    +0.000 C 
ATOM     31  C   UNL     1      60.866  69.284  54.139  0.00  0.00    +0.000 A 
ATOM     32  C   UNL     1      61.227  68.546  54.219  0.00  0.00    +0.000 A 
ATOM     33  O   UNL     1      60.992  67.918  53.738  0.00  0.00    +0.000 OA
ATOM     34  C   UNL     1      61.354  67.180  53.818  0.00  0.00    +0.000 C 
ATOM     35  C   UNL     1      62.457  61.608  52.776  0.00  0.00    +0.000 A 
ATOM     36  C   UNL     1      62.818  60.871  52.856  0.00  0.00    +0.000 A 
ENDROOT
TORSDOF 0
ENDMDL
MODEL 4
REMARK VINA RESULT:   -11.717     13.736     15.809
REMARK INTER + INTRA:         -11.717
REMARK INTER:                 -11.717
REMARK INTRA:                   0.000
REMARK UNBOUND:                 0.000
ROOT
REMARK  Name = simetride
REMARK                            x       y       z     vdW  Elec       q    Type
REMARK                         _______ _______ _______ _____ _____    ______ ____
ATOM      1  C   UNL     1      58.375  73.775  53.966  0.00  0.00    +0.000 C 
ATOM      2  C   UNL     1      58.832  73.106  54.126  0.00  0.00    +0.000 C 
ATOM      3  C   UNL     1      58.803  72.457  53.620  0.00  0.00    +0.000 C 
ATOM      4  C   UNL     1      59.260  71.788  53.780  0.00  0.00    +0.000 A 
ATOM      5  C   UNL     1      59.231  71.137  53.273  0.00  0.00    +0.000 A 
ATOM      6  C   UNL     1      59.688  70.469  53.433  0.00  0.00    +0.000 A 
ATOM      7  O   UNL     1      59.660  69.819  52.927  0.00  0.00    +0.000 OA
ATOM      8  C   UNL     1      60.116  69.151  53.087  0.00  0.00    +0.000 C 
ATOM      9  C   UNL     1      60.173  70.451  54.101  0.00  0.00    +0.000 A 
ATOM     10  O   UNL     1      60.629  69.784  54.262  0.00  0.00    +0.000 OA
ATOM     11  C   UNL     1      61.114  69.765  54.929  0.00  0.00    +0.000 C 
ATOM     12  C   UNL     1      61.570  69.097  55.089  0.00  0.00    +0.000 C 
ATOM     13  O   UNL     1      62.055  69.080  55.757  0.00  0.00    +0.000 OA
ATOM     14  N   UNL     1      61.542  68.447  54.582  0.00  0.00    +0.000 N 
ATOM     15  C   UNL     1      61.057  68.464  53.915  0.00  0.00    +0.000 C 
ATOM     16  C   UNL     1      61.028  67.815  53.408  0.00  0.00    +0.000 C 
ATOM     17  N   UNL     1      61.485  67.146  53.569  0.00  0.00    +0.000 N 
ATOM     18  C   UNL     1      61.970  67.128  54.236  0.00  0.00    +0.000 C 
ATOM     19  C   UNL     1      61.998  67.779  54.743  0.00  0.00    +0.000 C 
ATOM     20  C   UNL     1      61.456  66.495  53.062  0.00  0.00    +0.000 C 
ATOM     21  O   UNL     1      60.971  66.514  52.395  0.00  0.00    +0.000 OA
ATOM     22  C   UNL     1      61.913  65.827  53.222  0.00  0.00    +0.000 C 
ATOM     23  O   UNL     1      61.884  65.177  52.716  0.00  0.00    +0.000 OA
ATOM     24  C   UNL     1      62.341  64.508  52.876  0.00  0.00    +0.000 A 
ATOM     25  C   UNL     1      62.312  63.858  52.369  0.00  0.00    +0.000 A 
ATOM     26  C   UNL     1      62.769  63.190  52.530  0.00  0.00    +0.000 A 
ATOM     27  C   UNL     1      63.253  63.172  53.197  0.00  0.00    +0.000 A 
ATOM     28  C   UNL     1      63.710  62.504  53.358  0.00  0.00    +0.000 C 
ATOM     29  C   UNL     1      64.195  62.486  54.025  0.00  0.00    +0.000 C 
ATOM     30  C   UNL     1      64.651  61.817  54.185  0.00  0.00    +0.000 C 
ATOM     31  C   UNL     1      63.282  63.822  53.704  0.00  0.00    +0.000 A 
ATOM     32  C   UNL     1      62.825  64.490  53.543  0.00  0.00    +0.000 A 
ATOM     33  O   UNL     1      62.854  65.141  54.051  0.00  0.00    +0.000 OA
ATOM     34  C   UNL     1      62.397  65.810  53.890  0.00  0.00    +0.000 C 
ATOM     35  C   UNL     1      60.201  71.102  54.608  0.00  0.00    +0.000 A 
ATOM     36  C   UNL     1      59.745  71.770  54.447  0.00  0.00    +0.000 A 
ENDROOT
TORSDOF 0
ENDMDL
MODEL 5
REMARK VINA RESULT:   -11.205     13.874     15.803
REMARK INTER + INTRA:         -11.205
REMARK INTER:                 -11.205
REMARK INTRA:                   0.000
REMARK UNBOUND:                 0.000
ROOT
REMARK  Name = simetride
REMARK                            x       y       z     vdW  Elec       q    Type
REMARK                         _______ _______ _______ _____ _____    ______ ____
ATOM      1  C   UNL     1      59.212  72.542  54.461  0.00  0.00    +0.000 C 
ATOM      2  C   UNL     1      59.434  71.816  54.138  0.00  0.00    +0.000 C 
ATOM      3  C   UNL     1      59.889  71.291  54.580  0.00  0.00    +0.000 C 
ATOM      4  C   UNL     1      60.111  70.564  54.256  0.00  0.00    +0.000 A 
ATOM      5  C   UNL     1      60.567  70.037  54.700  0.00  0.00    +0.000 A 
ATOM      6  C   UNL     1      60.789  69.311  54.377  0.00  0.00    +0.000 A 
ATOM      7  O   UNL     1      61.244  68.785  54.819  0.00  0.00    +0.000 OA
ATOM      8  C   UNL     1      61.466  68.060  54.496  0.00  0.00    +0.000 C 
ATOM      9  C   UNL     1      60.555  69.112  53.610  0.00  0.00    +0.000 A 
ATOM     10  O   UNL     1      60.776  68.386  53.288  0.00  0.00    +0.000 OA
ATOM     11  C   UNL     1      60.543  68.186  52.522  0.00  0.00    +0.000 C 
ATOM     12  C   UNL     1      60.764  67.460  52.199  0.00  0.00    +0.000 C 
ATOM     13  O   UNL     1      60.530  67.261  51.434  0.00  0.00    +0.000 OA
ATOM     14  N   UNL     1      61.220  66.934  52.642  0.00  0.00    +0.000 N 
ATOM     15  C   UNL     1      61.454  67.133  53.407  0.00  0.00    +0.000 C 
ATOM     16  C   UNL     1      61.909  66.608  53.850  0.00  0.00    +0.000 C 
ATOM     17  N   UNL     1      62.131  65.882  53.527  0.00  0.00    +0.000 N 
ATOM     18  C   UNL     1      61.897  65.681  52.761  0.00  0.00    +0.000 C 
ATOM     19  C   UNL     1      61.441  66.208  52.319  0.00  0.00    +0.000 C 
ATOM     20  C   UNL     1      62.587  65.355  53.970  0.00  0.00    +0.000 C 
ATOM     21  O   UNL     1      62.821  65.555  54.735  0.00  0.00    +0.000 OA
ATOM     22  C   UNL     1      62.809  64.629  53.646  0.00  0.00    +0.000 C 
ATOM     23  O   UNL     1      63.264  64.103  54.089  0.00  0.00    +0.000 OA
ATOM     24  C   UNL     1      63.486  63.376  53.765  0.00  0.00    +0.000 A 
ATOM     25  C   UNL     1      63.942  62.850  54.209  0.00  0.00    +0.000 A 
ATOM     26  C   UNL     1      64.164  62.124  53.885  0.00  0.00    +0.000 A 
ATOM     27  C   UNL     1      63.929  61.925  53.120  0.00  0.00    +0.000 A 
ATOM     28  C   UNL     1      64.151  61.199  52.797  0.00  0.00    +0.000 C 
ATOM     29  C   UNL     1      63.918  60.998  52.031  0.00  0.00    +0.000 C 
ATOM     30  C   UNL     1      64.139  60.272  51.708  0.00  0.00    +0.000 C 
ATOM     31  C   UNL     1      63.474  62.450  52.677  0.00  0.00    +0.000 A 
ATOM     32  C   UNL     1      63.252  63.176  53.000  0.00  0.00    +0.000 A 
ATOM     33  O   UNL     1      62.797  63.703  52.557  0.00  0.00    +0.000 OA
ATOM     34  C   UNL     1      62.575  64.430  52.881  0.00  0.00    +0.000 C 
ATOM     35  C   UNL     1      60.099  69.638  53.168  0.00  0.00    +0.000 A 
ATOM     36  C   UNL     1      59.877  70.364  53.492  0.00  0.00    +0.000 A 
ENDROOT
TORSDOF 0
ENDMDL
MODEL 6
REMARK VINA RESULT:   -10.357     15.413     16.740
REMARK INTER + INTRA:         -10.357
REMARK INTER:                 -10.357
REMARK INTRA:                   0.000
REMARK UNBOUND:                 0.000
ROOT
REMARK  Name = simetride
REMARK                            x       y       z     vdW  Elec       q    Type
REMARK                         _______ _______ _______ _____ _____    ______ ____
ATOM      1  C   UNL     1      62.689  57.865  52.488  0.00  0.00    +0.000 C 
ATOM      2  C   UNL     1      62.670  58.616  52.147  0.00  0.00    +0.000 C 
ATOM      3  C   UNL     1      62.481  59.273  52.607  0.00  0.00    +0.000 C 
ATOM      4  C   UNL     1      62.462  60.025  52.266  0.00  0.00    +0.000 A 
ATOM      5  C   UNL     1      62.273  60.683  52.727  0.00  0.00    +0.000 A 
ATOM      6  C   UNL     1      62.253  61.434  52.386  0.00  0.00    +0.000 A 
ATOM      7  O   UNL     1      62.064  62.092  52.846  0.00  0.00    +0.000 OA
ATOM      8  C   UNL     1      62.045  62.842  52.506  0.00  0.00    +0.000 C 
ATOM      9  C   UNL     1      62.423  61.527  51.584  0.00  0.00    +0.000 A 
ATOM     10  O   UNL     1      62.403  62.277  51.243  0.00  0.00    +0.000 OA
ATOM     11  C   UNL     1      62.573  62.371  50.441  0.00  0.00    +0.000 C 
ATOM     12  C   UNL     1      62.553  63.122  50.100  0.00  0.00    +0.000 C 
ATOM     13  O   UNL     1      62.723  63.214  49.298  0.00  0.00    +0.000 OA
ATOM     14  N   UNL     1      62.364  63.779  50.560  0.00  0.00    +0.000 N 
ATOM     15  C   UNL     1      62.195  63.686  51.363  0.00  0.00    +0.000 C 
ATOM     16  C   UNL     1      62.006  64.343  51.823  0.00  0.00    +0.000 C 
ATOM     17  N   UNL     1      61.987  65.094  51.482  0.00  0.00    +0.000 N 
ATOM     18  C   UNL     1      62.156  65.188  50.680  0.00  0.00    +0.000 C 
ATOM     19  C   UNL     1      62.345  64.530  50.219  0.00  0.00    +0.000 C 
ATOM     20  C   UNL     1      61.797  65.753  51.943  0.00  0.00    +0.000 C 
ATOM     21  O   UNL     1      61.628  65.659  52.745  0.00  0.00    +0.000 OA
ATOM     22  C   UNL     1      61.778  66.503  51.602  0.00  0.00    +0.000 C 
ATOM     23  O   UNL     1      61.589  67.161  52.063  0.00  0.00    +0.000 OA
ATOM     24  C   UNL     1      61.570  67.912  51.721  0.00  0.00    +0.000 A 
ATOM     25  C   UNL     1      61.381  68.570  52.183  0.00  0.00    +0.000 A 
ATOM     26  C   UNL     1      61.361  69.321  51.841  0.00  0.00    +0.000 A 
ATOM     27  C   UNL     1      61.531  69.413  51.039  0.00  0.00    +0.000 A 
ATOM     28  C   UNL     1      61.511  70.164  50.698  0.00  0.00    +0.000 C 
ATOM     29  C   UNL     1      61.681  70.258  49.896  0.00  0.00    +0.000 C 
ATOM     30  C   UNL     1      61.661  71.009  49.555  0.00  0.00    +0.000 C 
ATOM     31  C   UNL     1      61.720  68.756  50.579  0.00  0.00    +0.000 A 
ATOM     32  C   UNL     1      61.739  68.005  50.920  0.00  0.00    +0.000 A 
ATOM     33  O   UNL     1      61.928  67.348  50.458  0.00  0.00    +0.000 OA
ATOM     34  C   UNL     1      61.948  66.596  50.800  0.00  0.00    +0.000 C 
ATOM     35  C   UNL     1      62.612  60.869  51.123  0.00  0.00    +0.000 A 
ATOM     36  C   UNL     1      62.631  60.118  51.465  0.00  0.00    +0.000 A 
ENDROOT
TORSDOF 0
ENDMDL
MODEL 7
REMARK VINA RESULT:   -10.263     14.370     16.870
REMARK INTER + INTRA:         -10.263
REMARK INTER:                 -10.263
REMARK INTRA:                   0.000
REMARK UNBOUND:                 0.000
ROOT
REMARK  Name = simetride
REMARK                            x       y       z     vdW  Elec       q    Type
REMARK                         _______ _______ _______ _____ _____    ______ ____
ATOM      1  C   UNL     1      60.926  71.022  49.948  0.00  0.00    +0.000 C 
ATOM      2  C   UNL     1      61.044  70.206  49.950  0.00  0.00    +0.000 C 
ATOM      3  C   UNL     1      61.278  69.825  50.643  0.00  0.00    +0.000 C 
ATOM      4  C   UNL     1      61.397  69.008  50.645  0.00  0.00    +0.000 A 
ATOM      5  C   UNL     1      61.631  68.628  51.339  0.00  0.00    +0.000 A 
ATOM      6  C   UNL     1      61.749  67.811  51.342  0.00  0.00    +0.000 A 
ATOM      7  O   UNL     1      61.984  67.430  52.034  0.00  0.00    +0.000 OA
ATOM      8  C   UNL     1      62.102  66.614  52.037  0.00  0.00    +0.000 C 
ATOM      9  C   UNL     1      61.633  67.375  50.650  0.00  0.00    +0.000 A 
ATOM     10  O   UNL     1      61.751  66.559  50.653  0.00  0.00    +0.000 OA
ATOM     11  C   UNL     1      61.635  66.123  49.962  0.00  0.00    +0.000 C 
ATOM     12  C   UNL     1      61.754  65.307  49.965  0.00  0.00    +0.000 C 
ATOM     13  O   UNL     1      61.637  64.872  49.273  0.00  0.00    +0.000 OA
ATOM     14  N   UNL     1      61.988  64.927  50.657  0.00  0.00    +0.000 N 
ATOM     15  C   UNL     1      62.104  65.362  51.349  0.00  0.00    +0.000 C 
ATOM     16  C   UNL     1      62.339  64.981  52.042  0.00  0.00    +0.000 C 
ATOM     17  N   UNL     1      62.457  64.165  52.044  0.00  0.00    +0.000 N 
ATOM     18  C   UNL     1      62.341  63.729  51.354  0.00  0.00    +0.000 C 
ATOM     19  C   UNL     1      62.106  64.110  50.660  0.00  0.00    +0.000 C 
ATOM     20  C   UNL     1      62.691  63.784  52.738  0.00  0.00    +0.000 C 
ATOM     21  O   UNL     1      62.807  64.220  53.428  0.00  0.00    +0.000 OA
ATOM     22  C   UNL     1      62.810  62.967  52.740  0.00  0.00    +0.000 C 
ATOM     23  O   UNL     1      63.044  62.587  53.433  0.00  0.00    +0.000 OA
ATOM     24  C   UNL     1      63.162  61.769  53.435  0.00  0.00    +0.000 A 
ATOM     25  C   UNL     1      63.397  61.389  54.129  0.00  0.00    +0.000 A 
ATOM     26  C   UNL     1      63.515  60.573  54.132  0.00  0.00    +0.000 A 
ATOM     27  C   UNL     1      63.399  60.137  53.440  0.00  0.00    +0.000 A 
ATOM     28  C   UNL     1      63.517  59.321  53.443  0.00  0.00    +0.000 C 
ATOM     29  C   UNL     1      63.401  58.885  52.752  0.00  0.00    +0.000 C 
ATOM     30  C   UNL     1      63.519  58.068  52.755  0.00  0.00    +0.000 C 
ATOM     31  C   UNL     1      63.165  60.518  52.747  0.00  0.00    +0.000 A 
ATOM     32  C   UNL     1      63.046  61.334  52.745  0.00  0.00    +0.000 A 
ATOM     33  O   UNL     1      62.812  61.714  52.051  0.00  0.00    +0.000 OA
ATOM     34  C   UNL     1      62.693  62.532  52.049  0.00  0.00    +0.000 C 
ATOM     35  C   UNL     1      61.399  67.756  49.957  0.00  0.00    +0.000 A 
ATOM     36  C   UNL     1      61.281  68.573  49.955  0.00  0.00    +0.000 A 
ENDROOT
TORSDOF 0
ENDMDL
MODEL 8
REMARK VINA RESULT:   -10.168     13.613     17.202
REMARK INTER + INTRA:         -10.168
REMARK INTER:                 -10.168
REMARK INTRA:                   0.000
REMARK UNBOUND:                 0.000
ROOT
REMARK  Name = simetride
REMARK                            x       y       z     vdW  Elec       q    Type
REMARK                         _______ _______ _______ _____ _____    ______ ____
ATOM      1  C   UNL     1      62.257  68.983  55.488  0.00  0.00    +0.000 C 
ATOM      2  C   UNL     1      62.310  68.196  55.247  0.00  0.00    +0.000 C 
ATOM      3  C   UNL     1      62.123  67.988  54.472  0.00  0.00    +0.000 C 
ATOM      4  C   UNL     1      62.176  67.200  54.231  0.00  0.00    +0.000 A 
ATOM      5  C   UNL     1      61.989  66.992  53.455  0.00  0.00    +0.000 A 
ATOM      6  C   UNL     1      62.043  66.205  53.215  0.00  0.00    +0.000 A 
ATOM      7  O   UNL     1      61.855  65.996  52.439  0.00  0.00    +0.000 OA
ATOM      8  C   UNL     1      61.909  65.210  52.199  0.00  0.00    +0.000 C 
ATOM      9  C   UNL     1      62.284  65.625  53.751  0.00  0.00    +0.000 A 
ATOM     10  O   UNL     1      62.337  64.838  53.511  0.00  0.00    +0.000 OA
ATOM     11  C   UNL     1      62.578  64.259  54.046  0.00  0.00    +0.000 C 
ATOM     12  C   UNL     1      62.631  63.471  53.805  0.00  0.00    +0.000 C 
ATOM     13  O   UNL     1      62.872  62.892  54.342  0.00  0.00    +0.000 OA
ATOM     14  N   UNL     1      62.444  63.264  53.030  0.00  0.00    +0.000 N 
ATOM     15  C   UNL     1      62.203  63.843  52.493  0.00  0.00    +0.000 C 
ATOM     16  C   UNL     1      62.016  63.635  51.718  0.00  0.00    +0.000 C 
ATOM     17  N   UNL     1      62.069  62.848  51.478  0.00  0.00    +0.000 N 
ATOM     18  C   UNL     1      62.310  62.268  52.013  0.00  0.00    +0.000 C 
ATOM     19  C   UNL     1      62.498  62.476  52.789  0.00  0.00    +0.000 C 
ATOM     20  C   UNL     1      61.882  62.639  50.701  0.00  0.00    +0.000 C 
ATOM     21  O   UNL     1      61.641  63.219  50.166  0.00  0.00    +0.000 OA
ATOM     22  C   UNL     1      61.936  61.852  50.461  0.00  0.00    +0.000 C 
ATOM     23  O   UNL     1      61.748  61.644  49.685  0.00  0.00    +0.000 OA
ATOM     24  C   UNL     1      61.802  60.856  49.444  0.00  0.00    +0.000 A 
ATOM     25  C   UNL     1      61.614  60.648  48.668  0.00  0.00    +0.000 A 
ATOM     26  C   UNL     1      61.668  59.861  48.428  0.00  0.00    +0.000 A 
ATOM     27  C   UNL     1      61.909  59.282  48.964  0.00  0.00    +0.000 A 
ATOM     28  C   UNL     1      61.963  58.495  48.724  0.00  0.00    +0.000 C 
ATOM     29  C   UNL     1      62.203  57.915  49.259  0.00  0.00    +0.000 C 
ATOM     30  C   UNL     1      62.257  57.128  49.018  0.00  0.00    +0.000 C 
ATOM     31  C   UNL     1      62.096  59.490  49.739  0.00  0.00    +0.000 A 
ATOM     32  C   UNL     1      62.043  60.277  49.980  0.00  0.00    +0.000 A 
ATOM     33  O   UNL     1      62.230  60.485  50.756  0.00  0.00    +0.000 OA
ATOM     34  C   UNL     1      62.177  61.273  50.997  0.00  0.00    +0.000 C 
ATOM     35  C   UNL     1      62.471  65.834  54.526  0.00  0.00    +0.000 A 
ATOM     36  C   UNL     1      62.417  66.621  54.767  0.00  0.00    +0.000 A 
ENDROOT
TORSDOF 0
ENDMDL
