MODEL 1
REMARK VINA RESULT:   -14.090      0.000      0.000
REMARK INTER + INTRA:         -14.090
REMARK INTER:                 -14.090
REMARK INTRA:                   0.000
REMARK UNBOUND:                 0.000
ROOT
REMARK  Name = simvastatin
REMARK                            x       y       z     vdW  Elec       q    Type
REMARK                         _______ _______ _______ _____ _____    ______ ____
ATOM      1  C   UNL     1      60.125  62.653  67.724  0.00  0.00    +0.000 C 
ATOM      2  C   UNL     1      60.199  63.105  68.411  0.00  0.00    +0.000 C 
ATOM      3  C   UNL     1      60.501  62.763  69.099  0.00  0.00    +0.000 C 
ATOM      4  C   UNL     1      60.412  63.481  69.495  0.00  0.00    +0.000 C 
ATOM      5  C   UNL     1      60.589  62.043  68.702  0.00  0.00    +0.000 C 
ATOM      6  C   UNL     1      60.802  62.421  69.785  0.00  0.00    +0.000 C 
ATOM      7  O   UNL     1      61.029  61.627  69.786  0.00  0.00    +0.000 OA
ATOM      8  O   UNL     1      60.876  62.871  70.472  0.00  0.00    +0.000 OA
ATOM      9  C   UNL     1      61.178  62.529  71.160  0.00  0.00    +0.000 C 
ATOM     10  C   UNL     1      61.405  61.737  71.161  0.00  0.00    +0.000 C 
ATOM     11  C   UNL     1      61.707  61.394  71.849  0.00  0.00    +0.000 C 
ATOM     12  C   UNL     1      61.934  60.601  71.849  0.00  0.00    +0.000 C 
ATOM     13  C   UNL     1      61.781  61.845  72.535  0.00  0.00    +0.000 C 
ATOM     14  C   UNL     1      61.554  62.637  72.535  0.00  0.00    +0.000 C 
ATOM     15  C   UNL     1      61.628  63.089  73.221  0.00  0.00    +0.000 C 
ATOM     16  C   UNL     1      61.400  63.882  73.221  0.00  0.00    +0.000 C 
ATOM     17  C   UNL     1      61.099  64.224  72.532  0.00  0.00    +0.000 C 
ATOM     18  C   UNL     1      60.871  65.017  72.532  0.00  0.00    +0.000 C 
ATOM     19  C   UNL     1      61.025  63.773  71.846  0.00  0.00    +0.000 C 
ATOM     20  C   UNL     1      60.723  64.115  71.159  0.00  0.00    +0.000 C 
ATOM     21  C   UNL     1      60.496  64.908  71.157  0.00  0.00    +0.000 C 
ATOM     22  C   UNL     1      60.195  65.250  70.471  0.00  0.00    +0.000 C 
ATOM     23  C   UNL     1      60.120  64.800  69.784  0.00  0.00    +0.000 C 
ATOM     24  C   UNL     1      59.819  65.142  69.096  0.00  0.00    +0.000 C 
ATOM     25  O   UNL     1      59.745  64.690  68.409  0.00  0.00    +0.000 OA
ATOM     26  C   UNL     1      59.592  65.934  69.095  0.00  0.00    +0.000 C 
ATOM     27  C   UNL     1      59.666  66.386  69.782  0.00  0.00    +0.000 C 
ATOM     28  O   UNL     1      59.438  67.178  69.782  0.00  0.00    +0.000 OA
ATOM     29  O   UNL     1      59.967  66.044  70.470  0.00  0.00    +0.000 OA
ATOM     30  C   UNL     1      61.252  62.980  71.846  0.00  0.00    +0.000 C 
ENDROOT
TORSDOF 0
ENDMDL
MODEL 2
REMARK VINA RESULT:   -13.747      1.329      2.493
REMARK INTER + INTRA:         -13.747
REMARK INTER:                 -13.747
REMARK INTRA:                   0.000
REMARK UNBOUND:                 0.000
ROOT
REMARK  Name = simvastatin
REMARK                            x       y       z     vdW  Elec       q    Type
REMARK                         _______ _______ _______ _____ _____    ______ ____
ATOM      1  C   UNL     1      59.688  66.576  68.742  0.00  0.00    +0.000 C 
ATOM      2  C   UNL     1      60.013  66.294  69.447  0.00  0.00    +0.000 C 
ATOM      3  C   UNL     1      60.114  65.483  69.560  0.00  0.00    +0.000 C 
ATOM      4  C   UNL     1      60.430  65.627  70.308  0.00  0.00    +0.000 C 
ATOM      5  C   UNL     1      59.797  65.340  68.810  0.00  0.00    +0.000 C 
ATOM      6  C   UNL     1      60.215  64.673  69.672  0.00  0.00    +0.000 C 
ATOM      7  O   UNL     1      59.992  64.143  69.080  0.00  0.00    +0.000 OA
ATOM      8  O   UNL     1      60.539  64.391  70.376  0.00  0.00    +0.000 OA
ATOM      9  C   UNL     1      60.640  63.580  70.489  0.00  0.00    +0.000 C 
ATOM     10  C   UNL     1      60.417  63.051  69.898  0.00  0.00    +0.000 C 
ATOM     11  C   UNL     1      60.519  62.239  70.010  0.00  0.00    +0.000 C 
ATOM     12  C   UNL     1      60.295  61.710  69.418  0.00  0.00    +0.000 C 
ATOM     13  C   UNL     1      60.843  61.958  70.714  0.00  0.00    +0.000 C 
ATOM     14  C   UNL     1      61.066  62.488  71.306  0.00  0.00    +0.000 C 
ATOM     15  C   UNL     1      61.390  62.207  72.011  0.00  0.00    +0.000 C 
ATOM     16  C   UNL     1      61.614  62.736  72.602  0.00  0.00    +0.000 C 
ATOM     17  C   UNL     1      61.512  63.548  72.489  0.00  0.00    +0.000 C 
ATOM     18  C   UNL     1      61.736  64.077  73.082  0.00  0.00    +0.000 C 
ATOM     19  C   UNL     1      61.188  63.829  71.785  0.00  0.00    +0.000 C 
ATOM     20  C   UNL     1      61.087  64.640  71.673  0.00  0.00    +0.000 C 
ATOM     21  C   UNL     1      61.310  65.170  72.264  0.00  0.00    +0.000 C 
ATOM     22  C   UNL     1      61.209  65.980  72.151  0.00  0.00    +0.000 C 
ATOM     23  C   UNL     1      60.884  66.262  71.447  0.00  0.00    +0.000 C 
ATOM     24  C   UNL     1      60.783  67.073  71.335  0.00  0.00    +0.000 C 
ATOM     25  O   UNL     1      60.459  67.353  70.630  0.00  0.00    +0.000 OA
ATOM     26  C   UNL     1      61.006  67.602  71.926  0.00  0.00    +0.000 C 
ATOM     27  C   UNL     1      61.331  67.321  72.631  0.00  0.00    +0.000 C 
ATOM     28  O   UNL     1      61.554  67.850  73.222  0.00  0.00    +0.000 OA
ATOM     29  O   UNL     1      61.432  66.510  72.744  0.00  0.00    +0.000 OA
ATOM     30  C   UNL     1      60.965  63.300  71.193  0.00  0.00    +0.000 C 
ENDROOT
TORSDOF 0
ENDMDL
MODEL 3
REMARK VINA RESULT:   -13.744      0.934      2.935
REMARK INTER + INTRA:         -13.744
REMARK INTER:                 -13.744
REMARK INTRA:                   0.000
REMARK UNBOUND:                 0.000
ROOT
REMARK  Name = simvastatin
REMARK                            x       y       z     vdW  Elec       q    Type
REMARK                         _______ _______ _______ _____ _____    ______ ____
ATOM      1  C   UNL     1      60.394  65.820  73.222  0.00  0.00    +0.000 C 
ATOM      2  C   UNL     1      60.315  65.576  72.437  0.00  0.00    +0.000 C 
ATOM      3  C   UNL     1      60.492  64.798  72.227  0.00  0.00    +0.000 C 
ATOM      4  C   UNL     1      60.299  64.966  71.443  0.00  0.00    +0.000 C 
ATOM      5  C   UNL     1      60.685  64.630  73.012  0.00  0.00    +0.000 C 
ATOM      6  C   UNL     1      60.669  64.021  72.017  0.00  0.00    +0.000 C 
ATOM      7  O   UNL     1      60.925  63.486  72.592  0.00  0.00    +0.000 OA
ATOM      8  O   UNL     1      60.590  63.777  71.233  0.00  0.00    +0.000 OA
ATOM      9  C   UNL     1      60.768  62.999  71.023  0.00  0.00    +0.000 C 
ATOM     10  C   UNL     1      61.023  62.465  71.597  0.00  0.00    +0.000 C 
ATOM     11  C   UNL     1      61.200  61.686  71.387  0.00  0.00    +0.000 C 
ATOM     12  C   UNL     1      61.456  61.152  71.962  0.00  0.00    +0.000 C 
ATOM     13  C   UNL     1      61.122  61.443  70.603  0.00  0.00    +0.000 C 
ATOM     14  C   UNL     1      60.866  61.977  70.029  0.00  0.00    +0.000 C 
ATOM     15  C   UNL     1      60.787  61.734  69.245  0.00  0.00    +0.000 C 
ATOM     16  C   UNL     1      60.532  62.267  68.671  0.00  0.00    +0.000 C 
ATOM     17  C   UNL     1      60.354  63.046  68.881  0.00  0.00    +0.000 C 
ATOM     18  C   UNL     1      60.099  63.580  68.306  0.00  0.00    +0.000 C 
ATOM     19  C   UNL     1      60.433  63.290  69.665  0.00  0.00    +0.000 C 
ATOM     20  C   UNL     1      60.256  64.067  69.875  0.00  0.00    +0.000 C 
ATOM     21  C   UNL     1      60.000  64.602  69.301  0.00  0.00    +0.000 C 
ATOM     22  C   UNL     1      59.823  65.379  69.511  0.00  0.00    +0.000 C 
ATOM     23  C   UNL     1      59.902  65.623  70.295  0.00  0.00    +0.000 C 
ATOM     24  C   UNL     1      59.725  66.401  70.505  0.00  0.00    +0.000 C 
ATOM     25  O   UNL     1      59.804  66.644  71.290  0.00  0.00    +0.000 OA
ATOM     26  C   UNL     1      59.469  66.935  69.931  0.00  0.00    +0.000 C 
ATOM     27  C   UNL     1      59.390  66.692  69.146  0.00  0.00    +0.000 C 
ATOM     28  O   UNL     1      59.135  67.226  68.572  0.00  0.00    +0.000 OA
ATOM     29  O   UNL     1      59.567  65.914  68.936  0.00  0.00    +0.000 OA
ATOM     30  C   UNL     1      60.689  62.756  70.240  0.00  0.00    +0.000 C 
ENDROOT
TORSDOF 0
ENDMDL
MODEL 4
REMARK VINA RESULT:   -13.583      2.452      4.694
REMARK INTER + INTRA:         -13.583
REMARK INTER:                 -13.583
REMARK INTRA:                   0.000
REMARK UNBOUND:                 0.000
ROOT
REMARK  Name = simvastatin
REMARK                            x       y       z     vdW  Elec       q    Type
REMARK                         _______ _______ _______ _____ _____    ______ ____
ATOM      1  C   UNL     1      58.933  65.674  73.181  0.00  0.00    +0.000 C 
ATOM      2  C   UNL     1      59.632  65.453  72.802  0.00  0.00    +0.000 C 
ATOM      3  C   UNL     1      60.277  65.968  72.791  0.00  0.00    +0.000 C 
ATOM      4  C   UNL     1      60.712  65.415  72.361  0.00  0.00    +0.000 C 
ATOM      5  C   UNL     1      59.841  66.522  73.222  0.00  0.00    +0.000 C 
ATOM      6  C   UNL     1      60.920  66.483  72.781  0.00  0.00    +0.000 C 
ATOM      7  O   UNL     1      60.865  67.220  73.148  0.00  0.00    +0.000 OA
ATOM      8  O   UNL     1      61.619  66.262  72.402  0.00  0.00    +0.000 OA
ATOM      9  C   UNL     1      62.263  66.777  72.392  0.00  0.00    +0.000 C 
ATOM     10  C   UNL     1      62.209  67.513  72.759  0.00  0.00    +0.000 C 
ATOM     11  C   UNL     1      62.854  68.029  72.748  0.00  0.00    +0.000 C 
ATOM     12  C   UNL     1      62.798  68.765  73.115  0.00  0.00    +0.000 C 
ATOM     13  C   UNL     1      63.552  67.807  72.370  0.00  0.00    +0.000 C 
ATOM     14  C   UNL     1      63.607  67.071  72.003  0.00  0.00    +0.000 C 
ATOM     15  C   UNL     1      64.305  66.849  71.624  0.00  0.00    +0.000 C 
ATOM     16  C   UNL     1      64.360  66.113  71.257  0.00  0.00    +0.000 C 
ATOM     17  C   UNL     1      63.715  65.597  71.268  0.00  0.00    +0.000 C 
ATOM     18  C   UNL     1      63.770  64.861  70.900  0.00  0.00    +0.000 C 
ATOM     19  C   UNL     1      63.017  65.819  71.646  0.00  0.00    +0.000 C 
ATOM     20  C   UNL     1      62.373  65.304  71.657  0.00  0.00    +0.000 C 
ATOM     21  C   UNL     1      62.427  64.567  71.290  0.00  0.00    +0.000 C 
ATOM     22  C   UNL     1      61.783  64.052  71.301  0.00  0.00    +0.000 C 
ATOM     23  C   UNL     1      61.084  64.273  71.679  0.00  0.00    +0.000 C 
ATOM     24  C   UNL     1      60.440  63.758  71.690  0.00  0.00    +0.000 C 
ATOM     25  O   UNL     1      59.741  63.980  72.068  0.00  0.00    +0.000 OA
ATOM     26  C   UNL     1      60.495  63.022  71.322  0.00  0.00    +0.000 C 
ATOM     27  C   UNL     1      61.193  62.800  70.944  0.00  0.00    +0.000 C 
ATOM     28  O   UNL     1      61.248  62.064  70.577  0.00  0.00    +0.000 OA
ATOM     29  O   UNL     1      61.838  63.315  70.933  0.00  0.00    +0.000 OA
ATOM     30  C   UNL     1      62.962  66.555  72.014  0.00  0.00    +0.000 C 
ENDROOT
TORSDOF 0
ENDMDL
MODEL 5
REMARK VINA RESULT:   -13.391      2.508      4.540
REMARK INTER + INTRA:         -13.391
REMARK INTER:                 -13.391
REMARK INTRA:                   0.000
REMARK UNBOUND:                 0.000
ROOT
REMARK  Name = simvastatin
REMARK                            x       y       z     vdW  Elec       q    Type
REMARK                         _______ _______ _______ _____ _____    ______ ____
ATOM      1  C   UNL     1      62.734  68.224  72.845  0.00  0.00    +0.000 C 
ATOM      2  C   UNL     1      62.666  67.477  72.502  0.00  0.00    +0.000 C 
ATOM      3  C   UNL     1      61.958  67.057  72.565  0.00  0.00    +0.000 C 
ATOM      4  C   UNL     1      62.288  66.437  72.132  0.00  0.00    +0.000 C 
ATOM      5  C   UNL     1      61.628  67.678  72.998  0.00  0.00    +0.000 C 
ATOM      6  C   UNL     1      61.252  66.638  72.627  0.00  0.00    +0.000 C 
ATOM      7  O   UNL     1      60.612  66.965  73.034  0.00  0.00    +0.000 OA
ATOM      8  O   UNL     1      61.183  65.891  72.284  0.00  0.00    +0.000 OA
ATOM      9  C   UNL     1      60.475  65.471  72.347  0.00  0.00    +0.000 C 
ATOM     10  C   UNL     1      59.837  65.798  72.753  0.00  0.00    +0.000 C 
ATOM     11  C   UNL     1      59.128  65.378  72.816  0.00  0.00    +0.000 C 
ATOM     12  C   UNL     1      58.489  65.706  73.222  0.00  0.00    +0.000 C 
ATOM     13  C   UNL     1      59.060  64.632  72.473  0.00  0.00    +0.000 C 
ATOM     14  C   UNL     1      59.699  64.304  72.067  0.00  0.00    +0.000 C 
ATOM     15  C   UNL     1      59.631  63.557  71.723  0.00  0.00    +0.000 C 
ATOM     16  C   UNL     1      60.270  63.230  71.318  0.00  0.00    +0.000 C 
ATOM     17  C   UNL     1      60.978  63.650  71.255  0.00  0.00    +0.000 C 
ATOM     18  C   UNL     1      61.617  63.322  70.849  0.00  0.00    +0.000 C 
ATOM     19  C   UNL     1      61.046  64.396  71.598  0.00  0.00    +0.000 C 
ATOM     20  C   UNL     1      61.754  64.816  71.535  0.00  0.00    +0.000 C 
ATOM     21  C   UNL     1      62.393  64.489  71.129  0.00  0.00    +0.000 C 
ATOM     22  C   UNL     1      63.100  64.909  71.067  0.00  0.00    +0.000 C 
ATOM     23  C   UNL     1      63.169  65.656  71.410  0.00  0.00    +0.000 C 
ATOM     24  C   UNL     1      63.876  66.075  71.347  0.00  0.00    +0.000 C 
ATOM     25  O   UNL     1      63.944  66.822  71.690  0.00  0.00    +0.000 OA
ATOM     26  C   UNL     1      64.515  65.748  70.941  0.00  0.00    +0.000 C 
ATOM     27  C   UNL     1      64.447  65.001  70.598  0.00  0.00    +0.000 C 
ATOM     28  O   UNL     1      65.086  64.673  70.192  0.00  0.00    +0.000 OA
ATOM     29  O   UNL     1      63.740  64.581  70.660  0.00  0.00    +0.000 OA
ATOM     30  C   UNL     1      60.407  64.725  72.004  0.00  0.00    +0.000 C 
ENDROOT
TORSDOF 0
ENDMDL
MODEL 6
REMARK VINA RESULT:   -13.356      1.173      4.011
REMARK INTER + INTRA:         -13.356
REMARK INTER:                 -13.356
REMARK INTRA:                   0.000
REMARK UNBOUND:                 0.000
ROOT
REMARK  Name = simvastatin
REMARK                            x       y       z     vdW  Elec       q    Type
REMARK                         _______ _______ _______ _____ _____    ______ ____
ATOM      1  C   UNL     1      61.618  62.351  72.686  0.00  0.00    +0.000 C 
ATOM      2  C   UNL     1      61.314  62.761  72.037  0.00  0.00    +0.000 C 
ATOM      3  C   UNL     1      61.163  63.570  72.093  0.00  0.00    +0.000 C 
ATOM      4  C   UNL     1      60.899  63.575  71.311  0.00  0.00    +0.000 C 
ATOM      5  C   UNL     1      61.428  63.565  72.875  0.00  0.00    +0.000 C 
ATOM      6  C   UNL     1      61.013  64.378  72.149  0.00  0.00    +0.000 C 
ATOM      7  O   UNL     1      61.167  64.779  72.854  0.00  0.00    +0.000 OA
ATOM      8  O   UNL     1      60.709  64.788  71.500  0.00  0.00    +0.000 OA
ATOM      9  C   UNL     1      60.559  65.597  71.556  0.00  0.00    +0.000 C 
ATOM     10  C   UNL     1      60.712  65.997  72.261  0.00  0.00    +0.000 C 
ATOM     11  C   UNL     1      60.562  66.807  72.317  0.00  0.00    +0.000 C 
ATOM     12  C   UNL     1      60.716  67.207  73.022  0.00  0.00    +0.000 C 
ATOM     13  C   UNL     1      60.258  67.215  71.669  0.00  0.00    +0.000 C 
ATOM     14  C   UNL     1      60.104  66.815  70.964  0.00  0.00    +0.000 C 
ATOM     15  C   UNL     1      59.799  67.224  70.315  0.00  0.00    +0.000 C 
ATOM     16  C   UNL     1      59.646  66.824  69.611  0.00  0.00    +0.000 C 
ATOM     17  C   UNL     1      59.796  66.014  69.555  0.00  0.00    +0.000 C 
ATOM     18  C   UNL     1      59.642  65.614  68.849  0.00  0.00    +0.000 C 
ATOM     19  C   UNL     1      60.100  65.605  70.203  0.00  0.00    +0.000 C 
ATOM     20  C   UNL     1      60.251  64.796  70.147  0.00  0.00    +0.000 C 
ATOM     21  C   UNL     1      60.097  64.395  69.443  0.00  0.00    +0.000 C 
ATOM     22  C   UNL     1      60.247  63.587  69.387  0.00  0.00    +0.000 C 
ATOM     23  C   UNL     1      60.551  63.178  70.035  0.00  0.00    +0.000 C 
ATOM     24  C   UNL     1      60.702  62.368  69.979  0.00  0.00    +0.000 C 
ATOM     25  O   UNL     1      61.006  61.960  70.628  0.00  0.00    +0.000 OA
ATOM     26  C   UNL     1      60.548  61.969  69.274  0.00  0.00    +0.000 C 
ATOM     27  C   UNL     1      60.243  62.377  68.625  0.00  0.00    +0.000 C 
ATOM     28  O   UNL     1      60.090  61.977  67.921  0.00  0.00    +0.000 OA
ATOM     29  O   UNL     1      60.093  63.186  68.681  0.00  0.00    +0.000 OA
ATOM     30  C   UNL     1      60.254  66.005  70.908  0.00  0.00    +0.000 C 
ENDROOT
TORSDOF 0
ENDMDL
MODEL 7
REMARK VINA RESULT:   -13.121      1.021      3.713
REMARK INTER + INTRA:         -13.121
REMARK INTER:                 -13.121
REMARK INTRA:                   0.000
REMARK UNBOUND:                 0.000
ROOT
REMARK  Name = simvastatin
REMARK                            x       y       z     vdW  Elec       q    Type
REMARK                         _______ _______ _______ _____ _____    ______ ____
ATOM      1  C   UNL     1      60.501  62.074  68.459  0.00  0.00    +0.000 C 
ATOM      2  C   UNL     1      60.607  62.461  69.181  0.00  0.00    +0.000 C 
ATOM      3  C   UNL     1      60.414  63.260  69.252  0.00  0.00    +0.000 C 
ATOM      4  C   UNL     1      60.647  63.246  70.043  0.00  0.00    +0.000 C 
ATOM      5  C   UNL     1      60.180  63.275  68.460  0.00  0.00    +0.000 C 
ATOM      6  C   UNL     1      60.221  64.058  69.324  0.00  0.00    +0.000 C 
ATOM      7  O   UNL     1      59.921  64.470  68.674  0.00  0.00    +0.000 OA
ATOM      8  O   UNL     1      60.326  64.446  70.044  0.00  0.00    +0.000 OA
ATOM      9  C   UNL     1      60.133  65.244  70.116  0.00  0.00    +0.000 C 
ATOM     10  C   UNL     1      59.834  65.656  69.467  0.00  0.00    +0.000 C 
ATOM     11  C   UNL     1      59.641  66.456  69.539  0.00  0.00    +0.000 C 
ATOM     12  C   UNL     1      59.342  66.867  68.889  0.00  0.00    +0.000 C 
ATOM     13  C   UNL     1      59.746  66.842  70.259  0.00  0.00    +0.000 C 
ATOM     14  C   UNL     1      60.045  66.431  70.908  0.00  0.00    +0.000 C 
ATOM     15  C   UNL     1      60.151  66.817  71.629  0.00  0.00    +0.000 C 
ATOM     16  C   UNL     1      60.450  66.406  72.278  0.00  0.00    +0.000 C 
ATOM     17  C   UNL     1      60.644  65.606  72.206  0.00  0.00    +0.000 C 
ATOM     18  C   UNL     1      60.943  65.195  72.856  0.00  0.00    +0.000 C 
ATOM     19  C   UNL     1      60.538  65.220  71.486  0.00  0.00    +0.000 C 
ATOM     20  C   UNL     1      60.731  64.421  71.414  0.00  0.00    +0.000 C 
ATOM     21  C   UNL     1      61.030  64.008  72.063  0.00  0.00    +0.000 C 
ATOM     22  C   UNL     1      61.223  63.211  71.992  0.00  0.00    +0.000 C 
ATOM     23  C   UNL     1      61.118  62.823  71.271  0.00  0.00    +0.000 C 
ATOM     24  C   UNL     1      61.311  62.024  71.200  0.00  0.00    +0.000 C 
ATOM     25  O   UNL     1      61.205  61.638  70.478  0.00  0.00    +0.000 OA
ATOM     26  C   UNL     1      61.610  61.613  71.848  0.00  0.00    +0.000 C 
ATOM     27  C   UNL     1      61.716  61.999  72.570  0.00  0.00    +0.000 C 
ATOM     28  O   UNL     1      62.015  61.588  73.219  0.00  0.00    +0.000 OA
ATOM     29  O   UNL     1      61.523  62.798  72.641  0.00  0.00    +0.000 OA
ATOM     30  C   UNL     1      60.239  65.631  70.836  0.00  0.00    +0.000 C 
ENDROOT
TORSDOF 0
ENDMDL
MODEL 8
REMARK VINA RESULT:   -13.039      2.479      3.595
REMARK INTER + INTRA:         -13.039
REMARK INTER:                 -13.039
REMARK INTRA:                   0.000
REMARK UNBOUND:                 0.000
ROOT
REMARK  Name = simvastatin
REMARK                            x       y       z     vdW  Elec       q    Type
REMARK                         _______ _______ _______ _____ _____    ______ ____
ATOM      1  C   UNL     1      61.006  62.809  70.648  0.00  0.00    +0.000 C 
ATOM      2  C   UNL     1      60.955  63.534  71.041  0.00  0.00    +0.000 C 
ATOM      3  C   UNL     1      61.619  64.020  71.098  0.00  0.00    +0.000 C 
ATOM      4  C   UNL     1      61.176  64.576  71.517  0.00  0.00    +0.000 C 
ATOM      5  C   UNL     1      62.062  63.463  70.678  0.00  0.00    +0.000 C 
ATOM      6  C   UNL     1      62.282  64.505  71.156  0.00  0.00    +0.000 C 
ATOM      7  O   UNL     1      62.999  64.267  70.821  0.00  0.00    +0.000 OA
ATOM      8  O   UNL     1      62.232  65.229  71.547  0.00  0.00    +0.000 OA
ATOM      9  C   UNL     1      62.896  65.715  71.605  0.00  0.00    +0.000 C 
ATOM     10  C   UNL     1      63.611  65.477  71.271  0.00  0.00    +0.000 C 
ATOM     11  C   UNL     1      64.276  65.963  71.328  0.00  0.00    +0.000 C 
ATOM     12  C   UNL     1      64.992  65.724  70.994  0.00  0.00    +0.000 C 
ATOM     13  C   UNL     1      64.225  66.687  71.720  0.00  0.00    +0.000 C 
ATOM     14  C   UNL     1      63.510  66.925  72.054  0.00  0.00    +0.000 C 
ATOM     15  C   UNL     1      63.458  67.649  72.446  0.00  0.00    +0.000 C 
ATOM     16  C   UNL     1      62.743  67.888  72.780  0.00  0.00    +0.000 C 
ATOM     17  C   UNL     1      62.078  67.401  72.722  0.00  0.00    +0.000 C 
ATOM     18  C   UNL     1      61.362  67.640  73.057  0.00  0.00    +0.000 C 
ATOM     19  C   UNL     1      62.129  66.678  72.331  0.00  0.00    +0.000 C 
ATOM     20  C   UNL     1      61.465  66.192  72.273  0.00  0.00    +0.000 C 
ATOM     21  C   UNL     1      60.749  66.430  72.607  0.00  0.00    +0.000 C 
ATOM     22  C   UNL     1      60.086  65.944  72.550  0.00  0.00    +0.000 C 
ATOM     23  C   UNL     1      60.136  65.220  72.158  0.00  0.00    +0.000 C 
ATOM     24  C   UNL     1      59.472  64.734  72.101  0.00  0.00    +0.000 C 
ATOM     25  O   UNL     1      59.524  64.010  71.709  0.00  0.00    +0.000 OA
ATOM     26  C   UNL     1      58.757  64.973  72.435  0.00  0.00    +0.000 C 
ATOM     27  C   UNL     1      58.705  65.697  72.827  0.00  0.00    +0.000 C 
ATOM     28  O   UNL     1      57.990  65.935  73.161  0.00  0.00    +0.000 OA
ATOM     29  O   UNL     1      59.369  66.183  72.884  0.00  0.00    +0.000 OA
ATOM     30  C   UNL     1      62.845  66.439  71.996  0.00  0.00    +0.000 C 
ENDROOT
TORSDOF 0
ENDMDL
