MODEL 1
REMARK VINA RESULT:   -12.266      0.000      0.000
REMARK INTER + INTRA:         -12.266
REMARK INTER:                 -12.266
REMARK INTRA:                   0.000
REMARK UNBOUND:                 0.000
ROOT
REMARK  Name = sisomicin
REMARK                            x       y       z     vdW  Elec       q    Type
REMARK                         _______ _______ _______ _____ _____    ______ ____
ATOM      1  C   UNL     1      59.774  62.073  66.445  0.00  0.00    +0.000 C 
ATOM      2  N   UNL     1      59.760  62.389  67.208  0.00  0.00    +0.000 NA
ATOM      3  C   UNL     1      60.433  62.757  67.513  0.00  0.00    +0.000 C 
ATOM      4  C   UNL     1      60.420  63.073  68.275  0.00  0.00    +0.000 C 
ATOM      5  O   UNL     1      59.733  63.022  68.731  0.00  0.00    +0.000 OA
ATOM      6  C   UNL     1      61.092  63.440  68.582  0.00  0.00    +0.000 C 
ATOM      7  O   UNL     1      61.078  63.756  69.342  0.00  0.00    +0.000 OA
ATOM      8  C   UNL     1      61.751  64.124  69.649  0.00  0.00    +0.000 C 
ATOM      9  C   UNL     1      62.436  64.175  69.193  0.00  0.00    +0.000 C 
ATOM     10  N   UNL     1      62.450  63.859  68.432  0.00  0.00    +0.000 NA
ATOM     11  C   UNL     1      63.109  64.542  69.499  0.00  0.00    +0.000 C 
ATOM     12  C   UNL     1      63.096  64.859  70.261  0.00  0.00    +0.000 C 
ATOM     13  N   UNL     1      63.768  65.226  70.567  0.00  0.00    +0.000 NA
ATOM     14  C   UNL     1      62.409  64.808  70.716  0.00  0.00    +0.000 C 
ATOM     15  O   UNL     1      62.396  65.124  71.479  0.00  0.00    +0.000 OA
ATOM     16  C   UNL     1      61.711  65.073  71.934  0.00  0.00    +0.000 C 
ATOM     17  O   UNL     1      61.038  64.706  71.629  0.00  0.00    +0.000 OA
ATOM     18  C   UNL     1      60.352  64.655  72.084  0.00  0.00    +0.000 C 
ATOM     19  C   UNL     1      59.680  64.288  71.779  0.00  0.00    +0.000 C 
ATOM     20  N   UNL     1      59.693  63.971  71.016  0.00  0.00    +0.000 NA
ATOM     21  C   UNL     1      60.339  64.971  72.846  0.00  0.00    +0.000 C 
ATOM     22  C   UNL     1      61.011  65.339  73.152  0.00  0.00    +0.000 C 
ATOM     23  C   UNL     1      61.697  65.390  72.696  0.00  0.00    +0.000 C 
ATOM     24  N   UNL     1      62.369  65.757  73.003  0.00  0.00    +0.000 NA
ATOM     25  C   UNL     1      61.738  64.441  70.411  0.00  0.00    +0.000 C 
ATOM     26  O   UNL     1      61.051  64.389  70.866  0.00  0.00    +0.000 OA
ATOM     27  O   UNL     1      61.778  63.491  68.125  0.00  0.00    +0.000 OA
ATOM     28  C   UNL     1      61.791  63.175  67.364  0.00  0.00    +0.000 C 
ATOM     29  C   UNL     1      61.119  62.808  67.058  0.00  0.00    +0.000 C 
ATOM     30  C   UNL     1      61.499  62.642  66.344  0.00  0.00    +0.000 C 
ATOM     31  O   UNL     1      60.763  62.415  66.425  0.00  0.00    +0.000 OA
ENDROOT
TORSDOF 0
ENDMDL
MODEL 2
REMARK VINA RESULT:   -12.261      1.208      2.410
REMARK INTER + INTRA:         -12.261
REMARK INTER:                 -12.261
REMARK INTRA:                   0.000
REMARK UNBOUND:                 0.000
ROOT
REMARK  Name = sisomicin
REMARK                            x       y       z     vdW  Elec       q    Type
REMARK                         _______ _______ _______ _____ _____    ______ ____
ATOM      1  C   UNL     1      61.189  62.215  66.714  0.00  0.00    +0.000 C 
ATOM      2  N   UNL     1      61.559  62.772  67.200  0.00  0.00    +0.000 NA
ATOM      3  C   UNL     1      61.301  62.876  67.977  0.00  0.00    +0.000 C 
ATOM      4  C   UNL     1      61.670  63.432  68.462  0.00  0.00    +0.000 C 
ATOM      5  O   UNL     1      62.296  63.884  68.170  0.00  0.00    +0.000 OA
ATOM      6  C   UNL     1      61.413  63.538  69.238  0.00  0.00    +0.000 C 
ATOM      7  O   UNL     1      61.782  64.094  69.723  0.00  0.00    +0.000 OA
ATOM      8  C   UNL     1      61.524  64.199  70.500  0.00  0.00    +0.000 C 
ATOM      9  C   UNL     1      60.899  63.747  70.792  0.00  0.00    +0.000 C 
ATOM     10  N   UNL     1      60.530  63.192  70.307  0.00  0.00    +0.000 NA
ATOM     11  C   UNL     1      60.642  63.852  71.569  0.00  0.00    +0.000 C 
ATOM     12  C   UNL     1      61.010  64.409  72.054  0.00  0.00    +0.000 C 
ATOM     13  N   UNL     1      60.753  64.514  72.830  0.00  0.00    +0.000 NA
ATOM     14  C   UNL     1      61.636  64.860  71.761  0.00  0.00    +0.000 C 
ATOM     15  O   UNL     1      62.006  65.417  72.247  0.00  0.00    +0.000 OA
ATOM     16  C   UNL     1      62.631  65.868  71.955  0.00  0.00    +0.000 C 
ATOM     17  O   UNL     1      62.888  65.763  71.178  0.00  0.00    +0.000 OA
ATOM     18  C   UNL     1      63.514  66.214  70.886  0.00  0.00    +0.000 C 
ATOM     19  C   UNL     1      63.771  66.109  70.109  0.00  0.00    +0.000 C 
ATOM     20  N   UNL     1      63.402  65.552  69.624  0.00  0.00    +0.000 NA
ATOM     21  C   UNL     1      63.883  66.770  71.371  0.00  0.00    +0.000 C 
ATOM     22  C   UNL     1      63.626  66.876  72.148  0.00  0.00    +0.000 C 
ATOM     23  C   UNL     1      63.000  66.424  72.440  0.00  0.00    +0.000 C 
ATOM     24  N   UNL     1      62.743  66.529  73.217  0.00  0.00    +0.000 NA
ATOM     25  C   UNL     1      61.893  64.755  70.985  0.00  0.00    +0.000 C 
ATOM     26  O   UNL     1      62.519  65.206  70.692  0.00  0.00    +0.000 OA
ATOM     27  O   UNL     1      60.787  63.086  69.531  0.00  0.00    +0.000 OA
ATOM     28  C   UNL     1      60.418  62.530  69.046  0.00  0.00    +0.000 C 
ATOM     29  C   UNL     1      60.676  62.425  68.269  0.00  0.00    +0.000 C 
ATOM     30  C   UNL     1      60.110  61.840  68.130  0.00  0.00    +0.000 C 
ATOM     31  O   UNL     1      60.589  62.027  67.551  0.00  0.00    +0.000 OA
ENDROOT
TORSDOF 0
ENDMDL
MODEL 3
REMARK VINA RESULT:   -12.239      2.020      3.763
REMARK INTER + INTRA:         -12.239
REMARK INTER:                 -12.239
REMARK INTRA:                   0.000
REMARK UNBOUND:                 0.000
ROOT
REMARK  Name = sisomicin
REMARK                            x       y       z     vdW  Elec       q    Type
REMARK                         _______ _______ _______ _____ _____    ______ ____
ATOM      1  C   UNL     1      60.382  61.756  69.915  0.00  0.00    +0.000 C 
ATOM      2  N   UNL     1      61.004  62.297  69.850  0.00  0.00    +0.000 NA
ATOM      3  C   UNL     1      61.107  62.877  70.428  0.00  0.00    +0.000 C 
ATOM      4  C   UNL     1      61.728  63.417  70.362  0.00  0.00    +0.000 C 
ATOM      5  O   UNL     1      62.245  63.376  69.720  0.00  0.00    +0.000 OA
ATOM      6  C   UNL     1      61.833  63.997  70.939  0.00  0.00    +0.000 C 
ATOM      7  O   UNL     1      62.453  64.536  70.874  0.00  0.00    +0.000 OA
ATOM      8  C   UNL     1      62.558  65.117  71.451  0.00  0.00    +0.000 C 
ATOM      9  C   UNL     1      62.041  65.157  72.093  0.00  0.00    +0.000 C 
ATOM     10  N   UNL     1      61.421  64.618  72.159  0.00  0.00    +0.000 NA
ATOM     11  C   UNL     1      62.146  65.738  72.671  0.00  0.00    +0.000 C 
ATOM     12  C   UNL     1      62.766  66.277  72.606  0.00  0.00    +0.000 C 
ATOM     13  N   UNL     1      62.871  66.857  73.182  0.00  0.00    +0.000 NA
ATOM     14  C   UNL     1      63.282  66.236  71.963  0.00  0.00    +0.000 C 
ATOM     15  O   UNL     1      63.904  66.776  71.898  0.00  0.00    +0.000 OA
ATOM     16  C   UNL     1      64.419  66.736  71.256  0.00  0.00    +0.000 C 
ATOM     17  O   UNL     1      64.315  66.156  70.678  0.00  0.00    +0.000 OA
ATOM     18  C   UNL     1      64.831  66.115  70.036  0.00  0.00    +0.000 C 
ATOM     19  C   UNL     1      64.727  65.535  69.459  0.00  0.00    +0.000 C 
ATOM     20  N   UNL     1      64.106  64.994  69.524  0.00  0.00    +0.000 NA
ATOM     21  C   UNL     1      65.452  66.654  69.971  0.00  0.00    +0.000 C 
ATOM     22  C   UNL     1      65.557  67.235  70.548  0.00  0.00    +0.000 C 
ATOM     23  C   UNL     1      65.040  67.275  71.191  0.00  0.00    +0.000 C 
ATOM     24  N   UNL     1      65.145  67.856  71.767  0.00  0.00    +0.000 NA
ATOM     25  C   UNL     1      63.178  65.656  71.386  0.00  0.00    +0.000 C 
ATOM     26  O   UNL     1      63.694  65.615  70.744  0.00  0.00    +0.000 OA
ATOM     27  O   UNL     1      61.316  64.037  71.582  0.00  0.00    +0.000 OA
ATOM     28  C   UNL     1      60.696  63.498  71.647  0.00  0.00    +0.000 C 
ATOM     29  C   UNL     1      60.592  62.918  71.070  0.00  0.00    +0.000 C 
ATOM     30  C   UNL     1      59.932  62.609  71.458  0.00  0.00    +0.000 C 
ATOM     31  O   UNL     1      60.155  62.273  70.797  0.00  0.00    +0.000 OA
ENDROOT
TORSDOF 0
ENDMDL
MODEL 4
REMARK VINA RESULT:   -12.220      2.012      4.845
REMARK INTER + INTRA:         -12.220
REMARK INTER:                 -12.220
REMARK INTRA:                   0.000
REMARK UNBOUND:                 0.000
ROOT
REMARK  Name = sisomicin
REMARK                            x       y       z     vdW  Elec       q    Type
REMARK                         _______ _______ _______ _____ _____    ______ ____
ATOM      1  C   UNL     1      66.126  67.625  70.032  0.00  0.00    +0.000 C 
ATOM      2  N   UNL     1      65.551  67.060  69.854  0.00  0.00    +0.000 NA
ATOM      3  C   UNL     1      65.010  66.826  70.431  0.00  0.00    +0.000 C 
ATOM      4  C   UNL     1      64.435  66.262  70.253  0.00  0.00    +0.000 C 
ATOM      5  O   UNL     1      64.402  65.930  69.498  0.00  0.00    +0.000 OA
ATOM      6  C   UNL     1      63.893  66.028  70.829  0.00  0.00    +0.000 C 
ATOM      7  O   UNL     1      63.319  65.464  70.651  0.00  0.00    +0.000 OA
ATOM      8  C   UNL     1      62.777  65.230  71.229  0.00  0.00    +0.000 C 
ATOM      9  C   UNL     1      62.810  65.562  71.983  0.00  0.00    +0.000 C 
ATOM     10  N   UNL     1      63.384  66.126  72.161  0.00  0.00    +0.000 NA
ATOM     11  C   UNL     1      62.268  65.328  72.560  0.00  0.00    +0.000 C 
ATOM     12  C   UNL     1      61.694  64.763  72.382  0.00  0.00    +0.000 C 
ATOM     13  N   UNL     1      61.152  64.530  72.959  0.00  0.00    +0.000 NA
ATOM     14  C   UNL     1      61.661  64.432  71.627  0.00  0.00    +0.000 C 
ATOM     15  O   UNL     1      61.086  63.867  71.449  0.00  0.00    +0.000 OA
ATOM     16  C   UNL     1      61.054  63.536  70.694  0.00  0.00    +0.000 C 
ATOM     17  O   UNL     1      61.595  63.769  70.117  0.00  0.00    +0.000 OA
ATOM     18  C   UNL     1      61.563  63.438  69.363  0.00  0.00    +0.000 C 
ATOM     19  C   UNL     1      62.104  63.671  68.785  0.00  0.00    +0.000 C 
ATOM     20  N   UNL     1      62.680  64.237  68.964  0.00  0.00    +0.000 NA
ATOM     21  C   UNL     1      60.988  62.873  69.184  0.00  0.00    +0.000 C 
ATOM     22  C   UNL     1      60.446  62.640  69.761  0.00  0.00    +0.000 C 
ATOM     23  C   UNL     1      60.479  62.971  70.516  0.00  0.00    +0.000 C 
ATOM     24  N   UNL     1      59.937  62.738  71.092  0.00  0.00    +0.000 NA
ATOM     25  C   UNL     1      62.203  64.665  71.050  0.00  0.00    +0.000 C 
ATOM     26  O   UNL     1      62.171  64.334  70.295  0.00  0.00    +0.000 OA
ATOM     27  O   UNL     1      63.926  66.360  71.585  0.00  0.00    +0.000 OA
ATOM     28  C   UNL     1      64.501  66.924  71.763  0.00  0.00    +0.000 C 
ATOM     29  C   UNL     1      65.042  67.157  71.186  0.00  0.00    +0.000 C 
ATOM     30  C   UNL     1      65.412  67.683  71.705  0.00  0.00    +0.000 C 
ATOM     31  O   UNL     1      65.688  67.630  70.982  0.00  0.00    +0.000 OA
ENDROOT
TORSDOF 0
ENDMDL
MODEL 5
REMARK VINA RESULT:   -11.880      2.668      3.925
REMARK INTER + INTRA:         -11.880
REMARK INTER:                 -11.880
REMARK INTRA:                   0.000
REMARK UNBOUND:                 0.000
ROOT
REMARK  Name = sisomicin
REMARK                            x       y       z     vdW  Elec       q    Type
REMARK                         _______ _______ _______ _____ _____    ______ ____
ATOM      1  C   UNL     1      65.095  66.393  69.860  0.00  0.00    +0.000 C 
ATOM      2  N   UNL     1      64.349  66.536  70.184  0.00  0.00    +0.000 NA
ATOM      3  C   UNL     1      63.833  65.907  70.325  0.00  0.00    +0.000 C 
ATOM      4  C   UNL     1      63.088  66.050  70.648  0.00  0.00    +0.000 C 
ATOM      5  O   UNL     1      62.858  66.822  70.831  0.00  0.00    +0.000 OA
ATOM      6  C   UNL     1      62.572  65.422  70.789  0.00  0.00    +0.000 C 
ATOM      7  O   UNL     1      61.827  65.565  71.113  0.00  0.00    +0.000 OA
ATOM      8  C   UNL     1      61.311  64.936  71.254  0.00  0.00    +0.000 C 
ATOM      9  C   UNL     1      61.541  64.165  71.070  0.00  0.00    +0.000 C 
ATOM     10  N   UNL     1      62.285  64.023  70.747  0.00  0.00    +0.000 NA
ATOM     11  C   UNL     1      61.024  63.537  71.211  0.00  0.00    +0.000 C 
ATOM     12  C   UNL     1      60.279  63.680  71.535  0.00  0.00    +0.000 C 
ATOM     13  N   UNL     1      59.764  63.052  71.676  0.00  0.00    +0.000 NA
ATOM     14  C   UNL     1      60.050  64.451  71.718  0.00  0.00    +0.000 C 
ATOM     15  O   UNL     1      59.304  64.594  72.042  0.00  0.00    +0.000 OA
ATOM     16  C   UNL     1      59.075  65.365  72.224  0.00  0.00    +0.000 C 
ATOM     17  O   UNL     1      59.590  65.993  72.084  0.00  0.00    +0.000 OA
ATOM     18  C   UNL     1      59.361  66.764  72.266  0.00  0.00    +0.000 C 
ATOM     19  C   UNL     1      59.877  67.393  72.126  0.00  0.00    +0.000 C 
ATOM     20  N   UNL     1      60.623  67.250  71.802  0.00  0.00    +0.000 NA
ATOM     21  C   UNL     1      58.616  66.907  72.590  0.00  0.00    +0.000 C 
ATOM     22  C   UNL     1      58.100  66.279  72.731  0.00  0.00    +0.000 C 
ATOM     23  C   UNL     1      58.330  65.507  72.548  0.00  0.00    +0.000 C 
ATOM     24  N   UNL     1      57.813  64.880  72.689  0.00  0.00    +0.000 NA
ATOM     25  C   UNL     1      60.566  65.079  71.577  0.00  0.00    +0.000 C 
ATOM     26  O   UNL     1      60.337  65.850  71.760  0.00  0.00    +0.000 OA
ATOM     27  O   UNL     1      62.801  64.651  70.606  0.00  0.00    +0.000 OA
ATOM     28  C   UNL     1      63.547  64.508  70.283  0.00  0.00    +0.000 C 
ATOM     29  C   UNL     1      64.062  65.137  70.142  0.00  0.00    +0.000 C 
ATOM     30  C   UNL     1      64.643  64.630  69.845  0.00  0.00    +0.000 C 
ATOM     31  O   UNL     1      64.798  65.389  69.867  0.00  0.00    +0.000 OA
ENDROOT
TORSDOF 0
ENDMDL
MODEL 6
REMARK VINA RESULT:   -11.848      1.951      4.496
REMARK INTER + INTRA:         -11.848
REMARK INTER:                 -11.848
REMARK INTRA:                   0.000
REMARK UNBOUND:                 0.000
ROOT
REMARK  Name = sisomicin
REMARK                            x       y       z     vdW  Elec       q    Type
REMARK                         _______ _______ _______ _____ _____    ______ ____
ATOM      1  C   UNL     1      65.885  67.635  71.666  0.00  0.00    +0.000 C 
ATOM      2  N   UNL     1      65.253  67.123  71.812  0.00  0.00    +0.000 NA
ATOM      3  C   UNL     1      64.922  66.691  71.192  0.00  0.00    +0.000 C 
ATOM      4  C   UNL     1      64.290  66.180  71.337  0.00  0.00    +0.000 C 
ATOM      5  O   UNL     1      63.991  66.101  72.103  0.00  0.00    +0.000 OA
ATOM      6  C   UNL     1      63.958  65.748  70.719  0.00  0.00    +0.000 C 
ATOM      7  O   UNL     1      63.328  65.237  70.864  0.00  0.00    +0.000 OA
ATOM      8  C   UNL     1      62.996  64.805  70.244  0.00  0.00    +0.000 C 
ATOM      9  C   UNL     1      63.295  64.884  69.480  0.00  0.00    +0.000 C 
ATOM     10  N   UNL     1      63.925  65.394  69.334  0.00  0.00    +0.000 NA
ATOM     11  C   UNL     1      62.963  64.451  68.860  0.00  0.00    +0.000 C 
ATOM     12  C   UNL     1      62.332  63.940  69.005  0.00  0.00    +0.000 C 
ATOM     13  N   UNL     1      62.000  63.508  68.386  0.00  0.00    +0.000 NA
ATOM     14  C   UNL     1      62.033  63.862  69.771  0.00  0.00    +0.000 C 
ATOM     15  O   UNL     1      61.401  63.350  69.916  0.00  0.00    +0.000 OA
ATOM     16  C   UNL     1      61.102  63.271  70.681  0.00  0.00    +0.000 C 
ATOM     17  O   UNL     1      61.434  63.703  71.301  0.00  0.00    +0.000 OA
ATOM     18  C   UNL     1      61.135  63.625  72.065  0.00  0.00    +0.000 C 
ATOM     19  C   UNL     1      61.467  64.057  72.685  0.00  0.00    +0.000 C 
ATOM     20  N   UNL     1      62.098  64.569  72.539  0.00  0.00    +0.000 NA
ATOM     21  C   UNL     1      60.504  63.114  72.210  0.00  0.00    +0.000 C 
ATOM     22  C   UNL     1      60.172  62.681  71.591  0.00  0.00    +0.000 C 
ATOM     23  C   UNL     1      60.471  62.760  70.826  0.00  0.00    +0.000 C 
ATOM     24  N   UNL     1      60.139  62.328  70.207  0.00  0.00    +0.000 NA
ATOM     25  C   UNL     1      62.364  64.293  70.390  0.00  0.00    +0.000 C 
ATOM     26  O   UNL     1      62.066  64.215  71.155  0.00  0.00    +0.000 OA
ATOM     27  O   UNL     1      64.258  65.827  69.953  0.00  0.00    +0.000 OA
ATOM     28  C   UNL     1      64.889  66.338  69.808  0.00  0.00    +0.000 C 
ATOM     29  C   UNL     1      65.220  66.770  70.428  0.00  0.00    +0.000 C 
ATOM     30  C   UNL     1      65.769  67.125  69.923  0.00  0.00    +0.000 C 
ATOM     31  O   UNL     1      65.787  67.317  70.674  0.00  0.00    +0.000 OA
ENDROOT
TORSDOF 0
ENDMDL
MODEL 7
REMARK VINA RESULT:   -11.753      1.537      5.892
REMARK INTER + INTRA:         -11.753
REMARK INTER:                 -11.753
REMARK INTRA:                   0.000
REMARK UNBOUND:                 0.000
ROOT
REMARK  Name = sisomicin
REMARK                            x       y       z     vdW  Elec       q    Type
REMARK                         _______ _______ _______ _____ _____    ______ ____
ATOM      1  C   UNL     1      62.278  65.005  70.383  0.00  0.00    +0.000 C 
ATOM      2  N   UNL     1      62.364  64.632  69.651  0.00  0.00    +0.000 NA
ATOM      3  C   UNL     1      61.718  64.257  69.301  0.00  0.00    +0.000 C 
ATOM      4  C   UNL     1      61.804  63.884  68.570  0.00  0.00    +0.000 C 
ATOM      5  O   UNL     1      62.537  63.887  68.189  0.00  0.00    +0.000 OA
ATOM      6  C   UNL     1      61.159  63.509  68.218  0.00  0.00    +0.000 C 
ATOM      7  O   UNL     1      61.245  63.137  67.488  0.00  0.00    +0.000 OA
ATOM      8  C   UNL     1      60.599  62.762  67.137  0.00  0.00    +0.000 C 
ATOM      9  C   UNL     1      59.867  62.760  67.518  0.00  0.00    +0.000 C 
ATOM     10  N   UNL     1      59.781  63.132  68.248  0.00  0.00    +0.000 NA
ATOM     11  C   UNL     1      59.221  62.384  67.167  0.00  0.00    +0.000 C 
ATOM     12  C   UNL     1      59.307  62.012  66.436  0.00  0.00    +0.000 C 
ATOM     13  N   UNL     1      58.662  61.637  66.086  0.00  0.00    +0.000 NA
ATOM     14  C   UNL     1      60.040  62.015  66.056  0.00  0.00    +0.000 C 
ATOM     15  O   UNL     1      60.126  61.642  65.324  0.00  0.00    +0.000 OA
ATOM     16  C   UNL     1      60.858  61.644  64.944  0.00  0.00    +0.000 C 
ATOM     17  O   UNL     1      61.504  62.019  65.294  0.00  0.00    +0.000 OA
ATOM     18  C   UNL     1      62.236  62.022  64.914  0.00  0.00    +0.000 C 
ATOM     19  C   UNL     1      62.882  62.397  65.265  0.00  0.00    +0.000 C 
ATOM     20  N   UNL     1      62.796  62.770  65.997  0.00  0.00    +0.000 NA
ATOM     21  C   UNL     1      62.322  61.649  64.183  0.00  0.00    +0.000 C 
ATOM     22  C   UNL     1      61.677  61.274  63.832  0.00  0.00    +0.000 C 
ATOM     23  C   UNL     1      60.944  61.272  64.213  0.00  0.00    +0.000 C 
ATOM     24  N   UNL     1      60.299  60.897  63.862  0.00  0.00    +0.000 NA
ATOM     25  C   UNL     1      60.685  62.389  66.406  0.00  0.00    +0.000 C 
ATOM     26  O   UNL     1      61.418  62.392  66.026  0.00  0.00    +0.000 OA
ATOM     27  O   UNL     1      60.426  63.507  68.599  0.00  0.00    +0.000 OA
ATOM     28  C   UNL     1      60.340  63.879  69.330  0.00  0.00    +0.000 C 
ATOM     29  C   UNL     1      60.986  64.254  69.680  0.00  0.00    +0.000 C 
ATOM     30  C   UNL     1      60.536  64.481  70.334  0.00  0.00    +0.000 C 
ATOM     31  O   UNL     1      61.283  64.686  70.318  0.00  0.00    +0.000 OA
ENDROOT
TORSDOF 0
ENDMDL
MODEL 8
REMARK VINA RESULT:   -10.125     15.181     16.824
REMARK INTER + INTRA:         -10.125
REMARK INTER:                 -10.125
REMARK INTRA:                   0.000
REMARK UNBOUND:                 0.000
ROOT
REMARK  Name = sisomicin
REMARK                            x       y       z     vdW  Elec       q    Type
REMARK                         _______ _______ _______ _____ _____    ______ ____
ATOM      1  C   UNL     1      61.702  62.458  51.961  0.00  0.00    +0.000 C 
ATOM      2  N   UNL     1      61.728  63.282  51.899  0.00  0.00    +0.000 NA
ATOM      3  C   UNL     1      61.846  63.742  52.573  0.00  0.00    +0.000 C 
ATOM      4  C   UNL     1      61.872  64.564  52.511  0.00  0.00    +0.000 C 
ATOM      5  O   UNL     1      61.780  64.926  51.775  0.00  0.00    +0.000 OA
ATOM      6  C   UNL     1      61.990  65.026  53.185  0.00  0.00    +0.000 C 
ATOM      7  O   UNL     1      62.016  65.847  53.123  0.00  0.00    +0.000 OA
ATOM      8  C   UNL     1      62.135  66.308  53.797  0.00  0.00    +0.000 C 
ATOM      9  C   UNL     1      62.227  65.947  54.533  0.00  0.00    +0.000 C 
ATOM     10  N   UNL     1      62.200  65.125  54.595  0.00  0.00    +0.000 NA
ATOM     11  C   UNL     1      62.345  66.408  55.207  0.00  0.00    +0.000 C 
ATOM     12  C   UNL     1      62.371  67.230  55.145  0.00  0.00    +0.000 C 
ATOM     13  N   UNL     1      62.489  67.691  55.819  0.00  0.00    +0.000 NA
ATOM     14  C   UNL     1      62.279  67.591  54.409  0.00  0.00    +0.000 C 
ATOM     15  O   UNL     1      62.305  68.414  54.347  0.00  0.00    +0.000 OA
ATOM     16  C   UNL     1      62.213  68.775  53.611  0.00  0.00    +0.000 C 
ATOM     17  O   UNL     1      62.095  68.315  52.937  0.00  0.00    +0.000 OA
ATOM     18  C   UNL     1      62.003  68.676  52.201  0.00  0.00    +0.000 C 
ATOM     19  C   UNL     1      61.885  68.215  51.527  0.00  0.00    +0.000 C 
ATOM     20  N   UNL     1      61.859  67.392  51.589  0.00  0.00    +0.000 NA
ATOM     21  C   UNL     1      62.029  69.498  52.139  0.00  0.00    +0.000 C 
ATOM     22  C   UNL     1      62.147  69.959  52.813  0.00  0.00    +0.000 C 
ATOM     23  C   UNL     1      62.239  69.597  53.549  0.00  0.00    +0.000 C 
ATOM     24  N   UNL     1      62.357  70.059  54.223  0.00  0.00    +0.000 NA
ATOM     25  C   UNL     1      62.161  67.131  53.735  0.00  0.00    +0.000 C 
ATOM     26  O   UNL     1      62.069  67.492  52.999  0.00  0.00    +0.000 OA
ATOM     27  O   UNL     1      62.082  64.664  53.921  0.00  0.00    +0.000 OA
ATOM     28  C   UNL     1      62.056  63.842  53.983  0.00  0.00    +0.000 C 
ATOM     29  C   UNL     1      61.938  63.381  53.309  0.00  0.00    +0.000 C 
ATOM     30  C   UNL     1      61.972  62.682  53.746  0.00  0.00    +0.000 C 
ATOM     31  O   UNL     1      61.858  62.628  52.982  0.00  0.00    +0.000 OA
ENDROOT
TORSDOF 0
ENDMDL
MODEL 9
REMARK VINA RESULT:    -9.966     14.752     16.288
REMARK INTER + INTRA:          -9.966
REMARK INTER:                  -9.966
REMARK INTRA:                   0.000
REMARK UNBOUND:                 0.000
ROOT
REMARK  Name = sisomicin
REMARK                            x       y       z     vdW  Elec       q    Type
REMARK                         _______ _______ _______ _____ _____    ______ ____
ATOM      1  C   UNL     1      62.717  62.463  53.728  0.00  0.00    +0.000 C 
ATOM      2  N   UNL     1      62.727  63.222  54.054  0.00  0.00    +0.000 NA
ATOM      3  C   UNL     1      62.357  63.845  53.659  0.00  0.00    +0.000 C 
ATOM      4  C   UNL     1      62.367  64.603  53.984  0.00  0.00    +0.000 C 
ATOM      5  O   UNL     1      62.747  64.739  54.704  0.00  0.00    +0.000 OA
ATOM      6  C   UNL     1      61.999  65.227  53.589  0.00  0.00    +0.000 C 
ATOM      7  O   UNL     1      62.009  65.984  53.914  0.00  0.00    +0.000 OA
ATOM      8  C   UNL     1      61.639  66.608  53.519  0.00  0.00    +0.000 C 
ATOM      9  C   UNL     1      61.260  66.472  52.799  0.00  0.00    +0.000 C 
ATOM     10  N   UNL     1      61.250  65.715  52.475  0.00  0.00    +0.000 NA
ATOM     11  C   UNL     1      60.890  67.096  52.404  0.00  0.00    +0.000 C 
ATOM     12  C   UNL     1      60.901  67.854  52.730  0.00  0.00    +0.000 C 
ATOM     13  N   UNL     1      60.532  68.477  52.335  0.00  0.00    +0.000 NA
ATOM     14  C   UNL     1      61.280  67.989  53.450  0.00  0.00    +0.000 C 
ATOM     15  O   UNL     1      61.291  68.748  53.775  0.00  0.00    +0.000 OA
ATOM     16  C   UNL     1      61.670  68.882  54.495  0.00  0.00    +0.000 C 
ATOM     17  O   UNL     1      62.039  68.259  54.890  0.00  0.00    +0.000 OA
ATOM     18  C   UNL     1      62.419  68.394  55.610  0.00  0.00    +0.000 C 
ATOM     19  C   UNL     1      62.788  67.771  56.005  0.00  0.00    +0.000 C 
ATOM     20  N   UNL     1      62.778  67.012  55.680  0.00  0.00    +0.000 NA
ATOM     21  C   UNL     1      62.429  69.152  55.935  0.00  0.00    +0.000 C 
ATOM     22  C   UNL     1      62.060  69.776  55.541  0.00  0.00    +0.000 C 
ATOM     23  C   UNL     1      61.680  69.640  54.820  0.00  0.00    +0.000 C 
ATOM     24  N   UNL     1      61.311  70.264  54.426  0.00  0.00    +0.000 NA
ATOM     25  C   UNL     1      61.649  67.366  53.844  0.00  0.00    +0.000 C 
ATOM     26  O   UNL     1      62.029  67.500  54.565  0.00  0.00    +0.000 OA
ATOM     27  O   UNL     1      61.619  65.092  52.869  0.00  0.00    +0.000 OA
ATOM     28  C   UNL     1      61.609  64.334  52.544  0.00  0.00    +0.000 C 
ATOM     29  C   UNL     1      61.978  63.711  52.939  0.00  0.00    +0.000 C 
ATOM     30  C   UNL     1      61.766  63.173  52.349  0.00  0.00    +0.000 C 
ATOM     31  O   UNL     1      62.172  62.908  52.954  0.00  0.00    +0.000 OA
ENDROOT
TORSDOF 0
ENDMDL
