MODEL 1
REMARK VINA RESULT:   -15.365      0.000      0.000
REMARK INTER + INTRA:         -15.365
REMARK INTER:                 -15.365
REMARK INTRA:                   0.000
REMARK UNBOUND:                 0.000
ROOT
REMARK  Name = sitosterol
REMARK                            x       y       z     vdW  Elec       q    Type
REMARK                         _______ _______ _______ _____ _____    ______ ____
ATOM      1  C   UNL     1      63.126  65.717  69.628  0.00  0.00    +0.000 C 
ATOM      2  C   UNL     1      62.663  65.091  69.901  0.00  0.00    +0.000 C 
ATOM      3  C   UNL     1      62.548  64.986  70.710  0.00  0.00    +0.000 C 
ATOM      4  C   UNL     1      62.085  64.359  70.983  0.00  0.00    +0.000 C 
ATOM      5  C   UNL     1      61.970  64.254  71.794  0.00  0.00    +0.000 C 
ATOM      6  C   UNL     1      61.507  63.628  72.066  0.00  0.00    +0.000 C 
ATOM      7  C   UNL     1      61.392  63.523  72.877  0.00  0.00    +0.000 C 
ATOM      8  C   UNL     1      61.160  63.107  71.528  0.00  0.00    +0.000 C 
ATOM      9  C   UNL     1      60.686  62.459  71.719  0.00  0.00    +0.000 C 
ATOM     10  C   UNL     1      60.459  62.094  71.014  0.00  0.00    +0.000 C 
ATOM     11  C   UNL     1      60.792  62.517  70.390  0.00  0.00    +0.000 C 
ATOM     12  C   UNL     1      60.758  62.413  69.572  0.00  0.00    +0.000 C 
ATOM     13  C   UNL     1      60.324  61.787  69.254  0.00  0.00    +0.000 C 
ATOM     14  C   UNL     1      60.289  61.682  68.437  0.00  0.00    +0.000 C 
ATOM     15  C   UNL     1      60.688  62.204  67.937  0.00  0.00    +0.000 C 
ATOM     16  C   UNL     1      60.654  62.100  67.119  0.00  0.00    +0.000 C 
ATOM     17  C   UNL     1      61.052  62.621  66.619  0.00  0.00    +0.000 C 
ATOM     18  O   UNL     1      61.017  62.517  65.801  0.00  0.00    +0.000 OA
ATOM     19  C   UNL     1      61.485  63.247  66.937  0.00  0.00    +0.000 C 
ATOM     20  C   UNL     1      61.520  63.351  67.755  0.00  0.00    +0.000 C 
ATOM     21  C   UNL     1      61.121  62.830  68.255  0.00  0.00    +0.000 C 
ATOM     22  C   UNL     1      61.555  63.455  68.572  0.00  0.00    +0.000 C 
ATOM     23  C   UNL     1      61.156  62.934  69.072  0.00  0.00    +0.000 C 
ATOM     24  C   UNL     1      61.590  63.560  69.390  0.00  0.00    +0.000 C 
ATOM     25  C   UNL     1      61.625  63.664  70.208  0.00  0.00    +0.000 C 
ATOM     26  C   UNL     1      61.226  63.142  70.708  0.00  0.00    +0.000 C 
ATOM     27  C   UNL     1      61.635  63.740  71.103  0.00  0.00    +0.000 C 
ATOM     28  C   UNL     1      62.895  65.506  71.248  0.00  0.00    +0.000 C 
ATOM     29  C   UNL     1      63.358  66.133  70.976  0.00  0.00    +0.000 C 
ATOM     30  C   UNL     1      62.780  65.401  72.059  0.00  0.00    +0.000 C 
ENDROOT
TORSDOF 0
ENDMDL
MODEL 2
REMARK VINA RESULT:   -15.325      2.367      4.222
REMARK INTER + INTRA:         -15.325
REMARK INTER:                 -15.325
REMARK INTRA:                   0.000
REMARK UNBOUND:                 0.000
ROOT
REMARK  Name = sitosterol
REMARK                            x       y       z     vdW  Elec       q    Type
REMARK                         _______ _______ _______ _____ _____    ______ ____
ATOM      1  C   UNL     1      59.845  63.740  68.348  0.00  0.00    +0.000 C 
ATOM      2  C   UNL     1      60.074  63.624  69.132  0.00  0.00    +0.000 C 
ATOM      3  C   UNL     1      60.422  62.912  69.359  0.00  0.00    +0.000 C 
ATOM      4  C   UNL     1      60.651  62.796  70.143  0.00  0.00    +0.000 C 
ATOM      5  C   UNL     1      60.999  62.082  70.370  0.00  0.00    +0.000 C 
ATOM      6  C   UNL     1      61.228  61.966  71.154  0.00  0.00    +0.000 C 
ATOM      7  C   UNL     1      61.576  61.253  71.381  0.00  0.00    +0.000 C 
ATOM      8  C   UNL     1      61.109  62.563  71.711  0.00  0.00    +0.000 C 
ATOM      9  C   UNL     1      61.309  62.527  72.511  0.00  0.00    +0.000 C 
ATOM     10  C   UNL     1      61.093  63.242  72.860  0.00  0.00    +0.000 C 
ATOM     11  C   UNL     1      60.760  63.721  72.277  0.00  0.00    +0.000 C 
ATOM     12  C   UNL     1      60.449  64.484  72.300  0.00  0.00    +0.000 C 
ATOM     13  C   UNL     1      60.439  64.904  73.010  0.00  0.00    +0.000 C 
ATOM     14  C   UNL     1      60.129  65.668  73.034  0.00  0.00    +0.000 C 
ATOM     15  C   UNL     1      59.827  66.012  72.347  0.00  0.00    +0.000 C 
ATOM     16  C   UNL     1      59.516  66.776  72.370  0.00  0.00    +0.000 C 
ATOM     17  C   UNL     1      59.215  67.120  71.683  0.00  0.00    +0.000 C 
ATOM     18  O   UNL     1      58.904  67.884  71.706  0.00  0.00    +0.000 OA
ATOM     19  C   UNL     1      59.225  66.700  70.973  0.00  0.00    +0.000 C 
ATOM     20  C   UNL     1      59.536  65.936  70.949  0.00  0.00    +0.000 C 
ATOM     21  C   UNL     1      59.837  65.592  71.637  0.00  0.00    +0.000 C 
ATOM     22  C   UNL     1      59.847  65.173  70.926  0.00  0.00    +0.000 C 
ATOM     23  C   UNL     1      60.148  64.828  71.614  0.00  0.00    +0.000 C 
ATOM     24  C   UNL     1      60.158  64.409  70.903  0.00  0.00    +0.000 C 
ATOM     25  C   UNL     1      60.469  63.645  70.880  0.00  0.00    +0.000 C 
ATOM     26  C   UNL     1      60.770  63.301  71.567  0.00  0.00    +0.000 C 
ATOM     27  C   UNL     1      60.817  62.817  70.900  0.00  0.00    +0.000 C 
ATOM     28  C   UNL     1      60.541  62.314  68.802  0.00  0.00    +0.000 C 
ATOM     29  C   UNL     1      60.312  62.430  68.018  0.00  0.00    +0.000 C 
ATOM     30  C   UNL     1      60.888  61.601  69.029  0.00  0.00    +0.000 C 
ENDROOT
TORSDOF 0
ENDMDL
MODEL 3
REMARK VINA RESULT:   -15.204      2.473      4.041
REMARK INTER + INTRA:         -15.204
REMARK INTER:                 -15.204
REMARK INTRA:                   0.000
REMARK UNBOUND:                 0.000
ROOT
REMARK  Name = sitosterol
REMARK                            x       y       z     vdW  Elec       q    Type
REMARK                         _______ _______ _______ _____ _____    ______ ____
ATOM      1  C   UNL     1      64.930  65.335  70.525  0.00  0.00    +0.000 C 
ATOM      2  C   UNL     1      64.314  65.612  70.999  0.00  0.00    +0.000 C 
ATOM      3  C   UNL     1      64.343  66.375  71.308  0.00  0.00    +0.000 C 
ATOM      4  C   UNL     1      63.727  66.652  71.782  0.00  0.00    +0.000 C 
ATOM      5  C   UNL     1      63.755  67.417  72.092  0.00  0.00    +0.000 C 
ATOM      6  C   UNL     1      63.139  67.693  72.566  0.00  0.00    +0.000 C 
ATOM      7  C   UNL     1      63.168  68.458  72.875  0.00  0.00    +0.000 C 
ATOM      8  C   UNL     1      62.495  67.205  72.730  0.00  0.00    +0.000 C 
ATOM      9  C   UNL     1      61.841  67.404  73.193  0.00  0.00    +0.000 C 
ATOM     10  C   UNL     1      61.333  66.754  73.210  0.00  0.00    +0.000 C 
ATOM     11  C   UNL     1      61.673  66.154  72.758  0.00  0.00    +0.000 C 
ATOM     12  C   UNL     1      61.421  65.389  72.577  0.00  0.00    +0.000 C 
ATOM     13  C   UNL     1      60.703  65.111  72.874  0.00  0.00    +0.000 C 
ATOM     14  C   UNL     1      60.451  64.347  72.694  0.00  0.00    +0.000 C 
ATOM     15  C   UNL     1      60.917  63.860  72.217  0.00  0.00    +0.000 C 
ATOM     16  C   UNL     1      60.665  63.095  72.036  0.00  0.00    +0.000 C 
ATOM     17  C   UNL     1      61.130  62.609  71.560  0.00  0.00    +0.000 C 
ATOM     18  O   UNL     1      60.879  61.844  71.380  0.00  0.00    +0.000 OA
ATOM     19  C   UNL     1      61.848  62.888  71.264  0.00  0.00    +0.000 C 
ATOM     20  C   UNL     1      62.101  63.652  71.444  0.00  0.00    +0.000 C 
ATOM     21  C   UNL     1      61.634  64.138  71.921  0.00  0.00    +0.000 C 
ATOM     22  C   UNL     1      62.352  64.417  71.624  0.00  0.00    +0.000 C 
ATOM     23  C   UNL     1      61.886  64.903  72.101  0.00  0.00    +0.000 C 
ATOM     24  C   UNL     1      62.605  65.181  71.804  0.00  0.00    +0.000 C 
ATOM     25  C   UNL     1      62.856  65.946  71.985  0.00  0.00    +0.000 C 
ATOM     26  C   UNL     1      62.390  66.432  72.462  0.00  0.00    +0.000 C 
ATOM     27  C   UNL     1      63.092  66.784  72.206  0.00  0.00    +0.000 C 
ATOM     28  C   UNL     1      64.987  66.864  71.144  0.00  0.00    +0.000 C 
ATOM     29  C   UNL     1      65.603  66.587  70.670  0.00  0.00    +0.000 C 
ATOM     30  C   UNL     1      65.017  67.628  71.453  0.00  0.00    +0.000 C 
ENDROOT
TORSDOF 0
ENDMDL
MODEL 4
REMARK VINA RESULT:   -14.901      1.401      3.821
REMARK INTER + INTRA:         -14.901
REMARK INTER:                 -14.901
REMARK INTRA:                   0.000
REMARK UNBOUND:                 0.000
ROOT
REMARK  Name = sitosterol
REMARK                            x       y       z     vdW  Elec       q    Type
REMARK                         _______ _______ _______ _____ _____    ______ ____
ATOM      1  C   UNL     1      61.627  63.141  67.565  0.00  0.00    +0.000 C 
ATOM      2  C   UNL     1      61.592  63.188  68.388  0.00  0.00    +0.000 C 
ATOM      3  C   UNL     1      61.093  62.684  68.808  0.00  0.00    +0.000 C 
ATOM      4  C   UNL     1      61.057  62.731  69.631  0.00  0.00    +0.000 C 
ATOM      5  C   UNL     1      60.558  62.226  70.052  0.00  0.00    +0.000 C 
ATOM      6  C   UNL     1      60.522  62.273  70.875  0.00  0.00    +0.000 C 
ATOM      7  C   UNL     1      60.022  61.768  71.295  0.00  0.00    +0.000 C 
ATOM      8  C   UNL     1      60.987  62.824  71.277  0.00  0.00    +0.000 C 
ATOM      9  C   UNL     1      61.010  62.933  72.094  0.00  0.00    +0.000 C 
ATOM     10  C   UNL     1      61.546  63.539  72.255  0.00  0.00    +0.000 C 
ATOM     11  C   UNL     1      61.855  63.803  71.537  0.00  0.00    +0.000 C 
ATOM     12  C   UNL     1      62.406  64.389  71.355  0.00  0.00    +0.000 C 
ATOM     13  C   UNL     1      62.753  64.831  71.960  0.00  0.00    +0.000 C 
ATOM     14  C   UNL     1      63.304  65.417  71.779  0.00  0.00    +0.000 C 
ATOM     15  C   UNL     1      63.510  65.561  70.993  0.00  0.00    +0.000 C 
ATOM     16  C   UNL     1      64.061  66.147  70.811  0.00  0.00    +0.000 C 
ATOM     17  C   UNL     1      64.267  66.291  70.025  0.00  0.00    +0.000 C 
ATOM     18  O   UNL     1      64.818  66.877  69.844  0.00  0.00    +0.000 OA
ATOM     19  C   UNL     1      63.921  65.849  69.421  0.00  0.00    +0.000 C 
ATOM     20  C   UNL     1      63.369  65.263  69.602  0.00  0.00    +0.000 C 
ATOM     21  C   UNL     1      63.164  65.119  70.388  0.00  0.00    +0.000 C 
ATOM     22  C   UNL     1      62.818  64.677  69.784  0.00  0.00    +0.000 C 
ATOM     23  C   UNL     1      62.612  64.533  70.570  0.00  0.00    +0.000 C 
ATOM     24  C   UNL     1      62.266  64.091  69.965  0.00  0.00    +0.000 C 
ATOM     25  C   UNL     1      61.714  63.505  70.147  0.00  0.00    +0.000 C 
ATOM     26  C   UNL     1      61.509  63.361  70.933  0.00  0.00    +0.000 C 
ATOM     27  C   UNL     1      61.119  62.877  70.389  0.00  0.00    +0.000 C 
ATOM     28  C   UNL     1      60.628  62.133  68.406  0.00  0.00    +0.000 C 
ATOM     29  C   UNL     1      60.664  62.086  67.583  0.00  0.00    +0.000 C 
ATOM     30  C   UNL     1      60.128  61.628  68.826  0.00  0.00    +0.000 C 
ENDROOT
TORSDOF 0
ENDMDL
MODEL 5
REMARK VINA RESULT:   -14.716      2.625      4.919
REMARK INTER + INTRA:         -14.716
REMARK INTER:                 -14.716
REMARK INTRA:                   0.000
REMARK UNBOUND:                 0.000
ROOT
REMARK  Name = sitosterol
REMARK                            x       y       z     vdW  Elec       q    Type
REMARK                         _______ _______ _______ _____ _____    ______ ____
ATOM      1  C   UNL     1      62.233  63.119  70.973  0.00  0.00    +0.000 C 
ATOM      2  C   UNL     1      62.071  63.834  71.351  0.00  0.00    +0.000 C 
ATOM      3  C   UNL     1      61.344  63.948  71.721  0.00  0.00    +0.000 C 
ATOM      4  C   UNL     1      61.182  64.664  72.099  0.00  0.00    +0.000 C 
ATOM      5  C   UNL     1      60.453  64.779  72.470  0.00  0.00    +0.000 C 
ATOM      6  C   UNL     1      60.291  65.494  72.848  0.00  0.00    +0.000 C 
ATOM      7  C   UNL     1      59.563  65.608  73.219  0.00  0.00    +0.000 C 
ATOM      8  C   UNL     1      60.858  66.094  72.855  0.00  0.00    +0.000 C 
ATOM      9  C   UNL     1      60.775  66.835  73.210  0.00  0.00    +0.000 C 
ATOM     10  C   UNL     1      61.472  67.257  73.083  0.00  0.00    +0.000 C 
ATOM     11  C   UNL     1      61.985  66.778  72.651  0.00  0.00    +0.000 C 
ATOM     12  C   UNL     1      62.750  66.903  72.367  0.00  0.00    +0.000 C 
ATOM     13  C   UNL     1      63.130  67.621  72.508  0.00  0.00    +0.000 C 
ATOM     14  C   UNL     1      63.894  67.747  72.225  0.00  0.00    +0.000 C 
ATOM     15  C   UNL     1      64.279  67.153  71.800  0.00  0.00    +0.000 C 
ATOM     16  C   UNL     1      65.044  67.278  71.516  0.00  0.00    +0.000 C 
ATOM     17  C   UNL     1      65.428  66.685  71.092  0.00  0.00    +0.000 C 
ATOM     18  O   UNL     1      66.193  66.810  70.808  0.00  0.00    +0.000 OA
ATOM     19  C   UNL     1      65.049  65.966  70.951  0.00  0.00    +0.000 C 
ATOM     20  C   UNL     1      64.284  65.840  71.235  0.00  0.00    +0.000 C 
ATOM     21  C   UNL     1      63.899  66.434  71.659  0.00  0.00    +0.000 C 
ATOM     22  C   UNL     1      63.520  65.716  71.519  0.00  0.00    +0.000 C 
ATOM     23  C   UNL     1      63.135  66.310  71.943  0.00  0.00    +0.000 C 
ATOM     24  C   UNL     1      62.755  65.590  71.802  0.00  0.00    +0.000 C 
ATOM     25  C   UNL     1      61.991  65.465  72.086  0.00  0.00    +0.000 C 
ATOM     26  C   UNL     1      61.606  66.059  72.510  0.00  0.00    +0.000 C 
ATOM     27  C   UNL     1      61.159  65.372  72.413  0.00  0.00    +0.000 C 
ATOM     28  C   UNL     1      60.777  63.349  71.714  0.00  0.00    +0.000 C 
ATOM     29  C   UNL     1      60.939  62.634  71.336  0.00  0.00    +0.000 C 
ATOM     30  C   UNL     1      60.049  63.463  72.084  0.00  0.00    +0.000 C 
ENDROOT
TORSDOF 0
ENDMDL
MODEL 6
REMARK VINA RESULT:   -13.264      2.829      4.086
REMARK INTER + INTRA:         -13.264
REMARK INTER:                 -13.264
REMARK INTRA:                   0.000
REMARK UNBOUND:                 0.000
ROOT
REMARK  Name = sitosterol
REMARK                            x       y       z     vdW  Elec       q    Type
REMARK                         _______ _______ _______ _____ _____    ______ ____
ATOM      1  C   UNL     1      62.643  66.599  70.425  0.00  0.00    +0.000 C 
ATOM      2  C   UNL     1      62.165  65.972  70.670  0.00  0.00    +0.000 C 
ATOM      3  C   UNL     1      62.416  65.195  70.558  0.00  0.00    +0.000 C 
ATOM      4  C   UNL     1      61.938  64.568  70.803  0.00  0.00    +0.000 C 
ATOM      5  C   UNL     1      62.189  63.789  70.691  0.00  0.00    +0.000 C 
ATOM      6  C   UNL     1      61.711  63.163  70.936  0.00  0.00    +0.000 C 
ATOM      7  C   UNL     1      61.963  62.385  70.824  0.00  0.00    +0.000 C 
ATOM      8  C   UNL     1      60.982  63.315  71.291  0.00  0.00    +0.000 C 
ATOM      9  C   UNL     1      60.448  62.747  71.562  0.00  0.00    +0.000 C 
ATOM     10  C   UNL     1      59.795  63.142  71.877  0.00  0.00    +0.000 C 
ATOM     11  C   UNL     1      59.927  63.953  71.800  0.00  0.00    +0.000 C 
ATOM     12  C   UNL     1      59.473  64.608  72.013  0.00  0.00    +0.000 C 
ATOM     13  C   UNL     1      58.739  64.502  72.375  0.00  0.00    +0.000 C 
ATOM     14  C   UNL     1      58.285  65.156  72.588  0.00  0.00    +0.000 C 
ATOM     15  C   UNL     1      58.565  65.918  72.439  0.00  0.00    +0.000 C 
ATOM     16  C   UNL     1      58.111  66.574  72.652  0.00  0.00    +0.000 C 
ATOM     17  C   UNL     1      58.390  67.335  72.503  0.00  0.00    +0.000 C 
ATOM     18  O   UNL     1      57.937  67.991  72.716  0.00  0.00    +0.000 OA
ATOM     19  C   UNL     1      59.124  67.442  72.141  0.00  0.00    +0.000 C 
ATOM     20  C   UNL     1      59.578  66.787  71.928  0.00  0.00    +0.000 C 
ATOM     21  C   UNL     1      59.298  66.025  72.077  0.00  0.00    +0.000 C 
ATOM     22  C   UNL     1      60.032  66.131  71.715  0.00  0.00    +0.000 C 
ATOM     23  C   UNL     1      59.752  65.369  71.864  0.00  0.00    +0.000 C 
ATOM     24  C   UNL     1      60.486  65.477  71.502  0.00  0.00    +0.000 C 
ATOM     25  C   UNL     1      60.940  64.821  71.289  0.00  0.00    +0.000 C 
ATOM     26  C   UNL     1      60.660  64.059  71.438  0.00  0.00    +0.000 C 
ATOM     27  C   UNL     1      61.401  64.080  71.074  0.00  0.00    +0.000 C 
ATOM     28  C   UNL     1      63.145  65.043  70.203  0.00  0.00    +0.000 C 
ATOM     29  C   UNL     1      63.623  65.669  69.958  0.00  0.00    +0.000 C 
ATOM     30  C   UNL     1      63.397  64.265  70.091  0.00  0.00    +0.000 C 
ENDROOT
TORSDOF 0
ENDMDL
MODEL 7
REMARK VINA RESULT:   -12.956     25.235     26.716
REMARK INTER + INTRA:         -12.956
REMARK INTER:                 -12.956
REMARK INTRA:                   0.000
REMARK UNBOUND:                 0.000
ROOT
REMARK  Name = sitosterol
REMARK                            x       y       z     vdW  Elec       q    Type
REMARK                         _______ _______ _______ _____ _____    ______ ____
ATOM      1  C   UNL     1      73.002  81.140  53.133  0.00  0.00    +0.000 C 
ATOM      2  C   UNL     1      72.269  80.956  52.801  0.00  0.00    +0.000 C 
ATOM      3  C   UNL     1      71.578  81.078  53.234  0.00  0.00    +0.000 C 
ATOM      4  C   UNL     1      70.846  80.893  52.902  0.00  0.00    +0.000 C 
ATOM      5  C   UNL     1      70.154  81.016  53.336  0.00  0.00    +0.000 C 
ATOM      6  C   UNL     1      69.421  80.831  53.004  0.00  0.00    +0.000 C 
ATOM      7  C   UNL     1      68.730  80.954  53.438  0.00  0.00    +0.000 C 
ATOM      8  C   UNL     1      69.381  80.524  52.239  0.00  0.00    +0.000 C 
ATOM      9  C   UNL     1      68.691  80.315  51.837  0.00  0.00    +0.000 C 
ATOM     10  C   UNL     1      68.906  80.034  51.092  0.00  0.00    +0.000 C 
ATOM     11  C   UNL     1      69.728  80.070  51.034  0.00  0.00    +0.000 C 
ATOM     12  C   UNL     1      70.247  79.867  50.426  0.00  0.00    +0.000 C 
ATOM     13  C   UNL     1      69.954  79.564  49.717  0.00  0.00    +0.000 C 
ATOM     14  C   UNL     1      70.473  79.360  49.109  0.00  0.00    +0.000 C 
ATOM     15  C   UNL     1      71.287  79.459  49.211  0.00  0.00    +0.000 C 
ATOM     16  C   UNL     1      71.806  79.255  48.604  0.00  0.00    +0.000 C 
ATOM     17  C   UNL     1      72.619  79.354  48.705  0.00  0.00    +0.000 C 
ATOM     18  O   UNL     1      73.139  79.150  48.098  0.00  0.00    +0.000 OA
ATOM     19  C   UNL     1      72.912  79.657  49.414  0.00  0.00    +0.000 C 
ATOM     20  C   UNL     1      72.393  79.861  50.022  0.00  0.00    +0.000 C 
ATOM     21  C   UNL     1      71.580  79.762  49.920  0.00  0.00    +0.000 C 
ATOM     22  C   UNL     1      71.873  80.064  50.629  0.00  0.00    +0.000 C 
ATOM     23  C   UNL     1      71.060  79.965  50.528  0.00  0.00    +0.000 C 
ATOM     24  C   UNL     1      71.354  80.268  51.237  0.00  0.00    +0.000 C 
ATOM     25  C   UNL     1      70.834  80.472  51.844  0.00  0.00    +0.000 C 
ATOM     26  C   UNL     1      70.021  80.373  51.743  0.00  0.00    +0.000 C 
ATOM     27  C   UNL     1      70.233  80.681  52.479  0.00  0.00    +0.000 C 
ATOM     28  C   UNL     1      71.619  81.385  53.999  0.00  0.00    +0.000 C 
ATOM     29  C   UNL     1      72.351  81.569  54.331  0.00  0.00    +0.000 C 
ATOM     30  C   UNL     1      70.927  81.507  54.433  0.00  0.00    +0.000 C 
ENDROOT
TORSDOF 0
ENDMDL
MODEL 8
REMARK VINA RESULT:   -12.545      1.939      4.947
REMARK INTER + INTRA:         -12.545
REMARK INTER:                 -12.545
REMARK INTRA:                   0.000
REMARK UNBOUND:                 0.000
ROOT
REMARK  Name = sitosterol
REMARK                            x       y       z     vdW  Elec       q    Type
REMARK                         _______ _______ _______ _____ _____    ______ ____
ATOM      1  C   UNL     1      63.136  62.420  65.255  0.00  0.00    +0.000 C 
ATOM      2  C   UNL     1      62.401  62.426  65.628  0.00  0.00    +0.000 C 
ATOM      3  C   UNL     1      61.753  62.064  65.269  0.00  0.00    +0.000 C 
ATOM      4  C   UNL     1      61.017  62.070  65.642  0.00  0.00    +0.000 C 
ATOM      5  C   UNL     1      60.369  61.708  65.282  0.00  0.00    +0.000 C 
ATOM      6  C   UNL     1      59.633  61.714  65.655  0.00  0.00    +0.000 C 
ATOM      7  C   UNL     1      58.985  61.351  65.295  0.00  0.00    +0.000 C 
ATOM      8  C   UNL     1      59.546  62.082  66.389  0.00  0.00    +0.000 C 
ATOM      9  C   UNL     1      58.848  62.132  66.826  0.00  0.00    +0.000 C 
ATOM     10  C   UNL     1      59.012  62.545  67.521  0.00  0.00    +0.000 C 
ATOM     11  C   UNL     1      59.810  62.751  67.513  0.00  0.00    +0.000 C 
ATOM     12  C   UNL     1      60.280  63.162  68.052  0.00  0.00    +0.000 C 
ATOM     13  C   UNL     1      59.950  63.448  68.752  0.00  0.00    +0.000 C 
ATOM     14  C   UNL     1      60.419  63.860  69.291  0.00  0.00    +0.000 C 
ATOM     15  C   UNL     1      61.219  63.984  69.131  0.00  0.00    +0.000 C 
ATOM     16  C   UNL     1      61.689  64.395  69.671  0.00  0.00    +0.000 C 
ATOM     17  C   UNL     1      62.488  64.520  69.511  0.00  0.00    +0.000 C 
ATOM     18  O   UNL     1      62.958  64.931  70.050  0.00  0.00    +0.000 OA
ATOM     19  C   UNL     1      62.818  64.234  68.811  0.00  0.00    +0.000 C 
ATOM     20  C   UNL     1      62.349  63.823  68.271  0.00  0.00    +0.000 C 
ATOM     21  C   UNL     1      61.549  63.698  68.432  0.00  0.00    +0.000 C 
ATOM     22  C   UNL     1      61.879  63.411  67.732  0.00  0.00    +0.000 C 
ATOM     23  C   UNL     1      61.079  63.287  67.892  0.00  0.00    +0.000 C 
ATOM     24  C   UNL     1      61.410  63.000  67.192  0.00  0.00    +0.000 C 
ATOM     25  C   UNL     1      60.940  62.589  66.653  0.00  0.00    +0.000 C 
ATOM     26  C   UNL     1      60.140  62.464  66.813  0.00  0.00    +0.000 C 
ATOM     27  C   UNL     1      60.393  62.147  66.094  0.00  0.00    +0.000 C 
ATOM     28  C   UNL     1      61.840  61.696  64.535  0.00  0.00    +0.000 C 
ATOM     29  C   UNL     1      62.576  61.690  64.162  0.00  0.00    +0.000 C 
ATOM     30  C   UNL     1      61.192  61.334  64.175  0.00  0.00    +0.000 C 
ENDROOT
TORSDOF 0
ENDMDL
