MODEL 1
REMARK VINA RESULT:   -10.145      0.000      0.000
REMARK INTER + INTRA:         -10.145
REMARK INTER:                 -10.145
REMARK INTRA:                   0.000
REMARK UNBOUND:                 0.000
ROOT
REMARK  Name = spaglumic acid
REMARK                            x       y       z     vdW  Elec       q    Type
REMARK                         _______ _______ _______ _____ _____    ______ ____
ATOM      1  C   UNK A   0      62.765  61.612  63.176  0.00  0.00    +0.000 C 
ATOM      2  C   UNK A   0      62.215  61.644  63.791  0.00  0.00    +0.000 C 
ATOM      3  O   UNK A   0      61.476  61.289  63.701  0.00  0.00    +0.000 OA
ATOM      4  N   UNK A   1      62.404  62.031  64.494  0.00  0.00    +0.000 NA
ATOM      5  C   UNK A   1      61.854  62.063  65.108  0.00  0.00    +0.000 C 
ATOM      6  C   UNK A   1      62.043  62.450  65.811  0.00  0.00    +0.000 C 
ATOM      7  C   UNK A   1      61.493  62.482  66.425  0.00  0.00    +0.000 C 
ATOM      8  O   UNK A   1      60.754  62.127  66.335  0.00  0.00    +0.000 OA
ATOM      9  N   UNK A   1      61.681  62.869  67.129  0.00  0.00    +0.000 NA
ATOM     10  C   UNK A   1      61.132  62.901  67.742  0.00  0.00    +0.000 C 
ATOM     11  C   UNK A   1      61.320  63.288  68.446  0.00  0.00    +0.000 C 
ATOM     12  C   UNK A   1      60.770  63.320  69.060  0.00  0.00    +0.000 C 
ATOM     13  C   UNK A   1      60.959  63.707  69.764  0.00  0.00    +0.000 C 
ATOM     14  O   UNK A   1      60.409  63.739  70.377  0.00  0.00    +0.000 OA
ATOM     15  O   UNK A   1      61.698  64.062  69.854  0.00  0.00    +0.000 OA
ATOM     16  C   UNK A   1      60.392  62.546  67.652  0.00  0.00    +0.000 C 
ATOM     17  O   UNK A   1      59.841  62.578  68.266  0.00  0.00    +0.000 OA
ATOM     18  O   UNK A   1      60.203  62.159  66.949  0.00  0.00    +0.000 OA
ATOM     19  C   UNK A   1      61.115  61.708  65.018  0.00  0.00    +0.000 C 
ATOM     20  O   UNK A   1      60.564  61.740  65.631  0.00  0.00    +0.000 OA
ATOM     21  O   UNK A   1      60.925  61.321  64.314  0.00  0.00    +0.000 OA
ENDROOT
TORSDOF 0
ENDMDL
MODEL 2
REMARK VINA RESULT:   -10.038      1.263      4.841
REMARK INTER + INTRA:         -10.038
REMARK INTER:                 -10.038
REMARK INTRA:                   0.000
REMARK UNBOUND:                 0.000
ROOT
REMARK  Name = spaglumic acid
REMARK                            x       y       z     vdW  Elec       q    Type
REMARK                         _______ _______ _______ _____ _____    ______ ____
ATOM      1  C   UNK A   0      60.175  62.892  71.289  0.00  0.00    +0.000 C 
ATOM      2  C   UNK A   0      60.568  63.017  70.574  0.00  0.00    +0.000 C 
ATOM      3  O   UNK A   0      61.163  63.585  70.525  0.00  0.00    +0.000 OA
ATOM      4  N   UNK A   1      60.366  62.574  69.908  0.00  0.00    +0.000 NA
ATOM      5  C   UNK A   1      60.759  62.699  69.194  0.00  0.00    +0.000 C 
ATOM      6  C   UNK A   1      60.557  62.256  68.528  0.00  0.00    +0.000 C 
ATOM      7  C   UNK A   1      60.950  62.382  67.815  0.00  0.00    +0.000 C 
ATOM      8  O   UNK A   1      61.545  62.950  67.766  0.00  0.00    +0.000 OA
ATOM      9  N   UNK A   1      60.748  61.939  67.148  0.00  0.00    +0.000 NA
ATOM     10  C   UNK A   1      61.141  62.064  66.435  0.00  0.00    +0.000 C 
ATOM     11  C   UNK A   1      60.939  61.621  65.768  0.00  0.00    +0.000 C 
ATOM     12  C   UNK A   1      61.332  61.746  65.054  0.00  0.00    +0.000 C 
ATOM     13  C   UNK A   1      61.130  61.303  64.388  0.00  0.00    +0.000 C 
ATOM     14  O   UNK A   1      61.523  61.429  63.674  0.00  0.00    +0.000 OA
ATOM     15  O   UNK A   1      60.535  60.735  64.436  0.00  0.00    +0.000 OA
ATOM     16  C   UNK A   1      61.737  62.633  66.386  0.00  0.00    +0.000 C 
ATOM     17  O   UNK A   1      62.130  62.759  65.671  0.00  0.00    +0.000 OA
ATOM     18  O   UNK A   1      61.939  63.076  67.051  0.00  0.00    +0.000 OA
ATOM     19  C   UNK A   1      61.354  63.268  69.145  0.00  0.00    +0.000 C 
ATOM     20  O   UNK A   1      61.748  63.394  68.432  0.00  0.00    +0.000 OA
ATOM     21  O   UNK A   1      61.557  63.711  69.812  0.00  0.00    +0.000 OA
ENDROOT
TORSDOF 0
ENDMDL
MODEL 3
REMARK VINA RESULT:    -9.456      1.211      1.816
REMARK INTER + INTRA:          -9.456
REMARK INTER:                  -9.456
REMARK INTRA:                   0.000
REMARK UNBOUND:                 0.000
ROOT
REMARK  Name = spaglumic acid
REMARK                            x       y       z     vdW  Elec       q    Type
REMARK                         _______ _______ _______ _____ _____    ______ ____
ATOM      1  C   UNK A   0      60.924  61.204  64.473  0.00  0.00    +0.000 C 
ATOM      2  C   UNK A   0      60.655  61.569  65.162  0.00  0.00    +0.000 C 
ATOM      3  O   UNK A   0      59.846  61.601  65.323  0.00  0.00    +0.000 OA
ATOM      4  N   UNK A   1      61.193  61.903  65.690  0.00  0.00    +0.000 NA
ATOM      5  C   UNK A   1      60.924  62.268  66.379  0.00  0.00    +0.000 C 
ATOM      6  C   UNK A   1      61.463  62.602  66.906  0.00  0.00    +0.000 C 
ATOM      7  C   UNK A   1      61.194  62.967  67.595  0.00  0.00    +0.000 C 
ATOM      8  O   UNK A   1      60.385  62.999  67.756  0.00  0.00    +0.000 OA
ATOM      9  N   UNK A   1      61.733  63.301  68.123  0.00  0.00    +0.000 NA
ATOM     10  C   UNK A   1      61.464  63.666  68.812  0.00  0.00    +0.000 C 
ATOM     11  C   UNK A   1      62.002  64.000  69.340  0.00  0.00    +0.000 C 
ATOM     12  C   UNK A   1      61.733  64.365  70.028  0.00  0.00    +0.000 C 
ATOM     13  C   UNK A   1      62.272  64.699  70.557  0.00  0.00    +0.000 C 
ATOM     14  O   UNK A   1      62.003  65.064  71.245  0.00  0.00    +0.000 OA
ATOM     15  O   UNK A   1      63.081  64.668  70.396  0.00  0.00    +0.000 OA
ATOM     16  C   UNK A   1      60.655  63.698  68.973  0.00  0.00    +0.000 C 
ATOM     17  O   UNK A   1      60.385  64.063  69.662  0.00  0.00    +0.000 OA
ATOM     18  O   UNK A   1      60.116  63.364  68.445  0.00  0.00    +0.000 OA
ATOM     19  C   UNK A   1      60.116  62.300  66.540  0.00  0.00    +0.000 C 
ATOM     20  O   UNK A   1      59.846  62.665  67.229  0.00  0.00    +0.000 OA
ATOM     21  O   UNK A   1      59.576  61.966  66.012  0.00  0.00    +0.000 OA
ENDROOT
TORSDOF 0
ENDMDL
MODEL 4
REMARK VINA RESULT:    -9.316      2.124      5.169
REMARK INTER + INTRA:          -9.316
REMARK INTER:                  -9.316
REMARK INTRA:                   0.000
REMARK UNBOUND:                 0.000
ROOT
REMARK  Name = spaglumic acid
REMARK                            x       y       z     vdW  Elec       q    Type
REMARK                         _______ _______ _______ _____ _____    ______ ____
ATOM      1  C   UNK A   0      61.807  64.456  72.519  0.00  0.00    +0.000 C 
ATOM      2  C   UNK A   0      61.960  64.304  71.722  0.00  0.00    +0.000 C 
ATOM      3  O   UNK A   0      62.698  64.487  71.402  0.00  0.00    +0.000 OA
ATOM      4  N   UNK A   1      61.376  63.969  71.246  0.00  0.00    +0.000 NA
ATOM      5  C   UNK A   1      61.529  63.817  70.450  0.00  0.00    +0.000 C 
ATOM      6  C   UNK A   1      60.945  63.483  69.974  0.00  0.00    +0.000 C 
ATOM      7  C   UNK A   1      61.098  63.331  69.178  0.00  0.00    +0.000 C 
ATOM      8  O   UNK A   1      61.836  63.514  68.858  0.00  0.00    +0.000 OA
ATOM      9  N   UNK A   1      60.514  62.996  68.701  0.00  0.00    +0.000 NA
ATOM     10  C   UNK A   1      60.667  62.844  67.906  0.00  0.00    +0.000 C 
ATOM     11  C   UNK A   1      60.083  62.509  67.429  0.00  0.00    +0.000 C 
ATOM     12  C   UNK A   1      60.236  62.358  66.633  0.00  0.00    +0.000 C 
ATOM     13  C   UNK A   1      59.652  62.023  66.156  0.00  0.00    +0.000 C 
ATOM     14  O   UNK A   1      59.805  61.871  65.360  0.00  0.00    +0.000 OA
ATOM     15  O   UNK A   1      58.914  61.840  66.476  0.00  0.00    +0.000 OA
ATOM     16  C   UNK A   1      61.405  63.028  67.585  0.00  0.00    +0.000 C 
ATOM     17  O   UNK A   1      61.559  62.876  66.789  0.00  0.00    +0.000 OA
ATOM     18  O   UNK A   1      61.990  63.363  68.061  0.00  0.00    +0.000 OA
ATOM     19  C   UNK A   1      62.267  64.001  70.130  0.00  0.00    +0.000 C 
ATOM     20  O   UNK A   1      62.421  63.849  69.334  0.00  0.00    +0.000 OA
ATOM     21  O   UNK A   1      62.852  64.336  70.606  0.00  0.00    +0.000 OA
ENDROOT
TORSDOF 0
ENDMDL
MODEL 5
REMARK VINA RESULT:    -9.276      3.732      6.231
REMARK INTER + INTRA:          -9.276
REMARK INTER:                  -9.276
REMARK INTRA:                   0.000
REMARK UNBOUND:                 0.000
ROOT
REMARK  Name = spaglumic acid
REMARK                            x       y       z     vdW  Elec       q    Type
REMARK                         _______ _______ _______ _____ _____    ______ ____
ATOM      1  C   UNK A   0      66.437  67.816  70.006  0.00  0.00    +0.000 C 
ATOM      2  C   UNK A   0      65.922  67.239  70.294  0.00  0.00    +0.000 C 
ATOM      3  O   UNK A   0      65.944  67.028  71.091  0.00  0.00    +0.000 OA
ATOM      4  N   UNK A   1      65.385  66.874  69.786  0.00  0.00    +0.000 NA
ATOM      5  C   UNK A   1      64.870  66.298  70.073  0.00  0.00    +0.000 C 
ATOM      6  C   UNK A   1      64.333  65.933  69.565  0.00  0.00    +0.000 C 
ATOM      7  C   UNK A   1      63.818  65.357  69.852  0.00  0.00    +0.000 C 
ATOM      8  O   UNK A   1      63.840  65.145  70.650  0.00  0.00    +0.000 OA
ATOM      9  N   UNK A   1      63.281  64.992  69.344  0.00  0.00    +0.000 NA
ATOM     10  C   UNK A   1      62.766  64.415  69.632  0.00  0.00    +0.000 C 
ATOM     11  C   UNK A   1      62.229  64.050  69.123  0.00  0.00    +0.000 C 
ATOM     12  C   UNK A   1      61.714  63.474  69.411  0.00  0.00    +0.000 C 
ATOM     13  C   UNK A   1      61.177  63.109  68.902  0.00  0.00    +0.000 C 
ATOM     14  O   UNK A   1      60.662  62.533  69.190  0.00  0.00    +0.000 OA
ATOM     15  O   UNK A   1      61.155  63.320  68.105  0.00  0.00    +0.000 OA
ATOM     16  C   UNK A   1      62.788  64.204  70.429  0.00  0.00    +0.000 C 
ATOM     17  O   UNK A   1      62.273  63.627  70.717  0.00  0.00    +0.000 OA
ATOM     18  O   UNK A   1      63.325  64.569  70.938  0.00  0.00    +0.000 OA
ATOM     19  C   UNK A   1      64.892  66.086  70.870  0.00  0.00    +0.000 C 
ATOM     20  O   UNK A   1      64.377  65.510  71.159  0.00  0.00    +0.000 OA
ATOM     21  O   UNK A   1      65.429  66.451  71.380  0.00  0.00    +0.000 OA
ENDROOT
TORSDOF 0
ENDMDL
MODEL 6
REMARK VINA RESULT:    -8.773      4.131      6.073
REMARK INTER + INTRA:          -8.773
REMARK INTER:                  -8.773
REMARK INTRA:                   0.000
REMARK UNBOUND:                 0.000
ROOT
REMARK  Name = spaglumic acid
REMARK                            x       y       z     vdW  Elec       q    Type
REMARK                         _______ _______ _______ _____ _____    ______ ____
ATOM      1  C   UNK A   0      60.023  64.374  68.918  0.00  0.00    +0.000 C 
ATOM      2  C   UNK A   0      60.729  64.398  69.345  0.00  0.00    +0.000 C 
ATOM      3  O   UNK A   0      60.878  63.831  69.926  0.00  0.00    +0.000 OA
ATOM      4  N   UNK A   1      61.285  64.987  69.192  0.00  0.00    +0.000 NA
ATOM      5  C   UNK A   1      61.990  65.011  69.619  0.00  0.00    +0.000 C 
ATOM      6  C   UNK A   1      62.546  65.600  69.466  0.00  0.00    +0.000 C 
ATOM      7  C   UNK A   1      63.251  65.623  69.893  0.00  0.00    +0.000 C 
ATOM      8  O   UNK A   1      63.400  65.056  70.473  0.00  0.00    +0.000 OA
ATOM      9  N   UNK A   1      63.808  66.213  69.740  0.00  0.00    +0.000 NA
ATOM     10  C   UNK A   1      64.513  66.236  70.167  0.00  0.00    +0.000 C 
ATOM     11  C   UNK A   1      65.069  66.826  70.014  0.00  0.00    +0.000 C 
ATOM     12  C   UNK A   1      65.774  66.849  70.441  0.00  0.00    +0.000 C 
ATOM     13  C   UNK A   1      66.331  67.439  70.288  0.00  0.00    +0.000 C 
ATOM     14  O   UNK A   1      67.036  67.462  70.714  0.00  0.00    +0.000 OA
ATOM     15  O   UNK A   1      66.181  68.006  69.707  0.00  0.00    +0.000 OA
ATOM     16  C   UNK A   1      64.662  65.669  70.747  0.00  0.00    +0.000 C 
ATOM     17  O   UNK A   1      65.368  65.692  71.175  0.00  0.00    +0.000 OA
ATOM     18  O   UNK A   1      64.106  65.079  70.901  0.00  0.00    +0.000 OA
ATOM     19  C   UNK A   1      62.140  64.444  70.200  0.00  0.00    +0.000 C 
ATOM     20  O   UNK A   1      62.845  64.466  70.627  0.00  0.00    +0.000 OA
ATOM     21  O   UNK A   1      61.583  63.853  70.353  0.00  0.00    +0.000 OA
ENDROOT
TORSDOF 0
ENDMDL
MODEL 7
REMARK VINA RESULT:    -8.679      1.891      5.582
REMARK INTER + INTRA:          -8.679
REMARK INTER:                  -8.679
REMARK INTRA:                   0.000
REMARK UNBOUND:                 0.000
ROOT
REMARK  Name = spaglumic acid
REMARK                            x       y       z     vdW  Elec       q    Type
REMARK                         _______ _______ _______ _____ _____    ______ ____
ATOM      1  C   UNK A   0      60.137  65.615  72.676  0.00  0.00    +0.000 C 
ATOM      2  C   UNK A   0      60.144  64.934  72.210  0.00  0.00    +0.000 C 
ATOM      3  O   UNK A   0      59.960  64.203  72.547  0.00  0.00    +0.000 OA
ATOM      4  N   UNK A   1      60.333  64.983  71.410  0.00  0.00    +0.000 NA
ATOM      5  C   UNK A   1      60.339  64.302  70.944  0.00  0.00    +0.000 C 
ATOM      6  C   UNK A   1      60.529  64.351  70.143  0.00  0.00    +0.000 C 
ATOM      7  C   UNK A   1      60.535  63.670  69.678  0.00  0.00    +0.000 C 
ATOM      8  O   UNK A   1      60.352  62.939  70.015  0.00  0.00    +0.000 OA
ATOM      9  N   UNK A   1      60.725  63.719  68.877  0.00  0.00    +0.000 NA
ATOM     10  C   UNK A   1      60.731  63.038  68.412  0.00  0.00    +0.000 C 
ATOM     11  C   UNK A   1      60.921  63.087  67.610  0.00  0.00    +0.000 C 
ATOM     12  C   UNK A   1      60.927  62.406  67.145  0.00  0.00    +0.000 C 
ATOM     13  C   UNK A   1      61.117  62.455  66.344  0.00  0.00    +0.000 C 
ATOM     14  O   UNK A   1      61.123  61.774  65.879  0.00  0.00    +0.000 OA
ATOM     15  O   UNK A   1      61.300  63.185  66.007  0.00  0.00    +0.000 OA
ATOM     16  C   UNK A   1      60.548  62.307  68.748  0.00  0.00    +0.000 C 
ATOM     17  O   UNK A   1      60.554  61.625  68.283  0.00  0.00    +0.000 OA
ATOM     18  O   UNK A   1      60.358  62.257  69.549  0.00  0.00    +0.000 OA
ATOM     19  C   UNK A   1      60.156  63.571  71.280  0.00  0.00    +0.000 C 
ATOM     20  O   UNK A   1      60.162  62.890  70.816  0.00  0.00    +0.000 OA
ATOM     21  O   UNK A   1      59.966  63.522  72.082  0.00  0.00    +0.000 OA
ENDROOT
TORSDOF 0
ENDMDL
MODEL 8
REMARK VINA RESULT:    -8.675      5.530      7.066
REMARK INTER + INTRA:          -8.675
REMARK INTER:                  -8.675
REMARK INTRA:                   0.000
REMARK UNBOUND:                 0.000
ROOT
REMARK  Name = spaglumic acid
REMARK                            x       y       z     vdW  Elec       q    Type
REMARK                         _______ _______ _______ _____ _____    ______ ____
ATOM      1  C   UNK A   0      66.438  67.692  69.820  0.00  0.00    +0.000 C 
ATOM      2  C   UNK A   0      65.865  67.505  70.383  0.00  0.00    +0.000 C 
ATOM      3  O   UNK A   0      65.884  67.865  71.125  0.00  0.00    +0.000 OA
ATOM      4  N   UNK A   1      65.274  66.959  70.206  0.00  0.00    +0.000 NA
ATOM      5  C   UNK A   1      64.701  66.772  70.769  0.00  0.00    +0.000 C 
ATOM      6  C   UNK A   1      64.109  66.225  70.592  0.00  0.00    +0.000 C 
ATOM      7  C   UNK A   1      63.537  66.039  71.155  0.00  0.00    +0.000 C 
ATOM      8  O   UNK A   1      63.557  66.399  71.897  0.00  0.00    +0.000 OA
ATOM      9  N   UNK A   1      62.945  65.492  70.978  0.00  0.00    +0.000 NA
ATOM     10  C   UNK A   1      62.373  65.305  71.541  0.00  0.00    +0.000 C 
ATOM     11  C   UNK A   1      61.781  64.759  71.363  0.00  0.00    +0.000 C 
ATOM     12  C   UNK A   1      61.209  64.572  71.927  0.00  0.00    +0.000 C 
ATOM     13  C   UNK A   1      60.617  64.025  71.749  0.00  0.00    +0.000 C 
ATOM     14  O   UNK A   1      60.045  63.839  72.313  0.00  0.00    +0.000 OA
ATOM     15  O   UNK A   1      60.598  63.666  71.007  0.00  0.00    +0.000 OA
ATOM     16  C   UNK A   1      62.392  65.665  72.283  0.00  0.00    +0.000 C 
ATOM     17  O   UNK A   1      61.820  65.479  72.848  0.00  0.00    +0.000 OA
ATOM     18  O   UNK A   1      62.984  66.212  72.462  0.00  0.00    +0.000 OA
ATOM     19  C   UNK A   1      64.720  67.131  71.511  0.00  0.00    +0.000 C 
ATOM     20  O   UNK A   1      64.148  66.945  72.076  0.00  0.00    +0.000 OA
ATOM     21  O   UNK A   1      65.312  67.679  71.690  0.00  0.00    +0.000 OA
ENDROOT
TORSDOF 0
ENDMDL
MODEL 9
REMARK VINA RESULT:    -8.168     13.185     14.162
REMARK INTER + INTRA:          -8.168
REMARK INTER:                  -8.168
REMARK INTRA:                   0.000
REMARK UNBOUND:                 0.000
ROOT
REMARK  Name = spaglumic acid
REMARK                            x       y       z     vdW  Elec       q    Type
REMARK                         _______ _______ _______ _____ _____    ______ ____
ATOM      1  C   UNK A   0      62.568  57.502  51.506  0.00  0.00    +0.000 C 
ATOM      2  C   UNK A   0      62.683  58.106  52.055  0.00  0.00    +0.000 C 
ATOM      3  O   UNK A   0      62.251  58.112  52.758  0.00  0.00    +0.000 OA
ATOM      4  N   UNK A   1      63.230  58.704  51.903  0.00  0.00    +0.000 NA
ATOM      5  C   UNK A   1      63.346  59.309  52.452  0.00  0.00    +0.000 C 
ATOM      6  C   UNK A   1      63.892  59.907  52.300  0.00  0.00    +0.000 C 
ATOM      7  C   UNK A   1      64.007  60.510  52.849  0.00  0.00    +0.000 C 
ATOM      8  O   UNK A   1      63.575  60.516  53.552  0.00  0.00    +0.000 OA
ATOM      9  N   UNK A   1      64.555  61.109  52.697  0.00  0.00    +0.000 NA
ATOM     10  C   UNK A   1      64.670  61.713  53.247  0.00  0.00    +0.000 C 
ATOM     11  C   UNK A   1      65.217  62.311  53.094  0.00  0.00    +0.000 C 
ATOM     12  C   UNK A   1      65.332  62.915  53.644  0.00  0.00    +0.000 C 
ATOM     13  C   UNK A   1      65.879  63.514  53.492  0.00  0.00    +0.000 C 
ATOM     14  O   UNK A   1      65.994  64.117  54.041  0.00  0.00    +0.000 OA
ATOM     15  O   UNK A   1      66.311  63.508  52.789  0.00  0.00    +0.000 OA
ATOM     16  C   UNK A   1      64.237  61.719  53.949  0.00  0.00    +0.000 C 
ATOM     17  O   UNK A   1      64.353  62.323  54.500  0.00  0.00    +0.000 OA
ATOM     18  O   UNK A   1      63.690  61.121  54.103  0.00  0.00    +0.000 OA
ATOM     19  C   UNK A   1      62.913  59.315  53.155  0.00  0.00    +0.000 C 
ATOM     20  O   UNK A   1      63.028  59.918  53.705  0.00  0.00    +0.000 OA
ATOM     21  O   UNK A   1      62.366  58.716  53.308  0.00  0.00    +0.000 OA
ENDROOT
TORSDOF 0
ENDMDL
