MODEL 1
REMARK VINA RESULT:   -16.869      0.000      0.000
REMARK INTER + INTRA:         -16.869
REMARK INTER:                 -16.869
REMARK INTRA:                   0.000
REMARK UNBOUND:                 0.000
ROOT
REMARK  Name = Spiramycin I
REMARK                            x       y       z     vdW  Elec       q    Type
REMARK                         _______ _______ _______ _____ _____    ______ ____
ATOM      1  C   UNL     1      60.326  66.141  50.794  0.00  0.00    +0.000 C 
ATOM      2  O   UNL     1      60.747  65.763  51.395  0.00  0.00    +0.000 OA
ATOM      3  C   UNL     1      60.922  64.959  51.333  0.00  0.00    +0.000 C 
ATOM      4  C   UNL     1      60.501  65.337  50.732  0.00  0.00    +0.000 C 
ATOM      5  O   UNL     1      60.133  65.972  50.354  0.00  0.00    +0.000 OA
ATOM      6  C   UNL     1      60.255  64.912  50.070  0.00  0.00    +0.000 C 
ATOM      7  C   UNL     1      60.430  64.108  50.008  0.00  0.00    +0.000 C 
ATOM      8  O   UNL     1      60.851  63.729  50.607  0.00  0.00    +0.000 OA
ATOM      9  O   UNL     1      60.184  63.682  49.345  0.00  0.00    +0.000 OA
ATOM     10  C   UNL     1      60.359  62.878  49.283  0.00  0.00    +0.000 C 
ATOM     11  C   UNL     1      60.113  62.453  48.620  0.00  0.00    +0.000 C 
ATOM     12  C   UNL     1      60.780  62.500  49.883  0.00  0.00    +0.000 C 
ATOM     13  C   UNL     1      61.025  62.925  50.545  0.00  0.00    +0.000 C 
ATOM     14  C   UNL     1      61.446  62.548  51.146  0.00  0.00    +0.000 C 
ATOM     15  C   UNL     1      61.692  62.973  51.808  0.00  0.00    +0.000 C 
ATOM     16  C   UNL     1      62.113  62.595  52.409  0.00  0.00    +0.000 C 
ATOM     17  C   UNL     1      62.359  63.020  53.071  0.00  0.00    +0.000 C 
ATOM     18  O   UNL     1      62.780  62.643  53.672  0.00  0.00    +0.000 OA
ATOM     19  C   UNL     1      62.955  61.839  53.610  0.00  0.00    +0.000 C 
ATOM     20  C   UNL     1      63.376  61.460  54.210  0.00  0.00    +0.000 C 
ATOM     21  C   UNL     1      63.551  60.656  54.148  0.00  0.00    +0.000 C 
ATOM     22  C   UNL     1      63.305  60.231  53.486  0.00  0.00    +0.000 C 
ATOM     23  C   UNL     1      62.884  60.609  52.885  0.00  0.00    +0.000 C 
ATOM     24  C   UNL     1      62.638  60.184  52.223  0.00  0.00    +0.000 C 
ATOM     25  O   UNL     1      62.709  61.413  52.947  0.00  0.00    +0.000 OA
ATOM     26  N   UNL     1      63.480  59.427  53.424  0.00  0.00    +0.000 NA
ATOM     27  C   UNL     1      63.234  59.001  52.761  0.00  0.00    +0.000 C 
ATOM     28  C   UNL     1      63.901  59.049  54.023  0.00  0.00    +0.000 C 
ATOM     29  C   UNL     1      62.184  63.824  53.133  0.00  0.00    +0.000 C 
ATOM     30  C   UNL     1      62.431  64.251  53.796  0.00  0.00    +0.000 C 
ATOM     31  C   UNL     1      61.764  64.203  52.533  0.00  0.00    +0.000 C 
ATOM     32  C   UNL     1      61.589  65.007  52.595  0.00  0.00    +0.000 C 
ATOM     33  C   UNL     1      61.835  65.432  53.258  0.00  0.00    +0.000 C 
ATOM     34  C   UNL     1      61.660  66.236  53.320  0.00  0.00    +0.000 C 
ATOM     35  O   UNL     1      61.906  66.662  53.983  0.00  0.00    +0.000 OA
ATOM     36  C   UNL     1      61.168  65.385  51.995  0.00  0.00    +0.000 C 
ATOM     37  O   UNL     1      60.882  66.141  51.828  0.00  0.00    +0.000 OA
ATOM     38  C   UNL     1      61.010  66.757  52.363  0.00  0.00    +0.000 C 
ATOM     39  O   UNL     1      61.423  66.616  53.063  0.00  0.00    +0.000 OA
ATOM     40  C   UNL     1      61.551  67.232  53.597  0.00  0.00    +0.000 C 
ATOM     41  C   UNL     1      61.964  67.092  54.297  0.00  0.00    +0.000 C 
ATOM     42  C   UNL     1      61.265  67.988  53.430  0.00  0.00    +0.000 C 
ATOM     43  O   UNL     1      61.394  68.604  53.965  0.00  0.00    +0.000 OA
ATOM     44  C   UNL     1      61.806  68.464  54.666  0.00  0.00    +0.000 C 
ATOM     45  C   UNL     1      61.934  69.079  55.200  0.00  0.00    +0.000 C 
ATOM     46  C   UNL     1      62.347  68.939  55.900  0.00  0.00    +0.000 C 
ATOM     47  C   UNL     1      62.185  69.743  55.987  0.00  0.00    +0.000 C 
ATOM     48  O   UNL     1      62.704  69.078  56.630  0.00  0.00    +0.000 OA
ATOM     49  C   UNL     1      62.632  68.183  56.065  0.00  0.00    +0.000 C 
ATOM     50  O   UNL     1      63.045  68.042  56.766  0.00  0.00    +0.000 OA
ATOM     51  C   UNL     1      62.504  67.568  55.531  0.00  0.00    +0.000 C 
ATOM     52  C   UNL     1      62.790  66.811  55.698  0.00  0.00    +0.000 C 
ATOM     53  O   UNL     1      62.091  67.707  54.831  0.00  0.00    +0.000 OA
ATOM     54  C   UNL     1      60.853  68.129  52.731  0.00  0.00    +0.000 C 
ATOM     55  C   UNL     1      60.725  67.513  52.196  0.00  0.00    +0.000 C 
ATOM     56  O   UNL     1      60.312  67.653  51.497  0.00  0.00    +0.000 OA
ATOM     57  N   UNL     1      60.568  68.884  52.565  0.00  0.00    +0.000 NA
ATOM     58  C   UNL     1      60.154  69.025  51.864  0.00  0.00    +0.000 C 
ATOM     59  C   UNL     1      60.695  69.500  53.099  0.00  0.00    +0.000 C 
ENDROOT
TORSDOF 0
ENDMDL
MODEL 2
REMARK VINA RESULT:   -16.528      1.321      6.276
REMARK INTER + INTRA:         -16.528
REMARK INTER:                 -16.528
REMARK INTRA:                   0.000
REMARK UNBOUND:                 0.000
ROOT
REMARK  Name = Spiramycin I
REMARK                            x       y       z     vdW  Elec       q    Type
REMARK                         _______ _______ _______ _____ _____    ______ ____
ATOM      1  C   UNL     1      61.331  63.945  49.607  0.00  0.00    +0.000 C 
ATOM      2  O   UNL     1      61.566  64.051  50.391  0.00  0.00    +0.000 OA
ATOM      3  C   UNL     1      61.522  64.798  50.737  0.00  0.00    +0.000 C 
ATOM      4  C   UNL     1      61.287  64.693  49.953  0.00  0.00    +0.000 C 
ATOM      5  O   UNL     1      61.149  64.269  49.259  0.00  0.00    +0.000 OA
ATOM      6  C   UNL     1      61.008  65.334  49.516  0.00  0.00    +0.000 C 
ATOM      7  C   UNL     1      60.964  66.081  49.862  0.00  0.00    +0.000 C 
ATOM      8  O   UNL     1      61.199  66.188  50.646  0.00  0.00    +0.000 OA
ATOM      9  O   UNL     1      60.686  66.723  49.425  0.00  0.00    +0.000 OA
ATOM     10  C   UNL     1      60.642  67.471  49.771  0.00  0.00    +0.000 C 
ATOM     11  C   UNL     1      60.363  68.112  49.333  0.00  0.00    +0.000 C 
ATOM     12  C   UNL     1      60.876  67.576  50.555  0.00  0.00    +0.000 C 
ATOM     13  C   UNL     1      61.155  66.936  50.992  0.00  0.00    +0.000 C 
ATOM     14  C   UNL     1      61.389  67.041  51.776  0.00  0.00    +0.000 C 
ATOM     15  C   UNL     1      61.668  66.400  52.213  0.00  0.00    +0.000 C 
ATOM     16  C   UNL     1      61.903  66.506  52.997  0.00  0.00    +0.000 C 
ATOM     17  C   UNL     1      62.181  65.865  53.435  0.00  0.00    +0.000 C 
ATOM     18  O   UNL     1      62.416  65.970  54.219  0.00  0.00    +0.000 OA
ATOM     19  C   UNL     1      62.372  66.718  54.565  0.00  0.00    +0.000 C 
ATOM     20  C   UNL     1      62.606  66.825  55.349  0.00  0.00    +0.000 C 
ATOM     21  C   UNL     1      62.562  67.572  55.695  0.00  0.00    +0.000 C 
ATOM     22  C   UNL     1      62.284  68.213  55.257  0.00  0.00    +0.000 C 
ATOM     23  C   UNL     1      62.049  68.108  54.473  0.00  0.00    +0.000 C 
ATOM     24  C   UNL     1      61.770  68.748  54.036  0.00  0.00    +0.000 C 
ATOM     25  O   UNL     1      62.093  67.360  54.127  0.00  0.00    +0.000 OA
ATOM     26  N   UNL     1      62.240  68.960  55.604  0.00  0.00    +0.000 NA
ATOM     27  C   UNL     1      61.961  69.603  55.166  0.00  0.00    +0.000 C 
ATOM     28  C   UNL     1      62.474  69.067  56.387  0.00  0.00    +0.000 C 
ATOM     29  C   UNL     1      62.225  65.117  53.089  0.00  0.00    +0.000 C 
ATOM     30  C   UNL     1      62.504  64.475  53.526  0.00  0.00    +0.000 C 
ATOM     31  C   UNL     1      61.991  65.011  52.305  0.00  0.00    +0.000 C 
ATOM     32  C   UNL     1      62.035  64.263  51.959  0.00  0.00    +0.000 C 
ATOM     33  C   UNL     1      62.314  63.622  52.396  0.00  0.00    +0.000 C 
ATOM     34  C   UNL     1      62.358  62.875  52.050  0.00  0.00    +0.000 C 
ATOM     35  O   UNL     1      62.637  62.233  52.488  0.00  0.00    +0.000 OA
ATOM     36  C   UNL     1      61.800  64.158  51.175  0.00  0.00    +0.000 C 
ATOM     37  O   UNL     1      61.751  63.542  50.627  0.00  0.00    +0.000 OA
ATOM     38  C   UNL     1      61.982  62.779  50.843  0.00  0.00    +0.000 C 
ATOM     39  O   UNL     1      62.262  62.633  51.604  0.00  0.00    +0.000 OA
ATOM     40  C   UNL     1      62.494  61.870  51.818  0.00  0.00    +0.000 C 
ATOM     41  C   UNL     1      62.774  61.723  52.580  0.00  0.00    +0.000 C 
ATOM     42  C   UNL     1      62.444  61.255  51.271  0.00  0.00    +0.000 C 
ATOM     43  O   UNL     1      62.675  60.492  51.487  0.00  0.00    +0.000 OA
ATOM     44  C   UNL     1      62.956  60.345  52.248  0.00  0.00    +0.000 C 
ATOM     45  C   UNL     1      63.187  59.583  52.463  0.00  0.00    +0.000 C 
ATOM     46  C   UNL     1      63.468  59.436  53.225  0.00  0.00    +0.000 C 
ATOM     47  C   UNL     1      63.522  58.678  52.902  0.00  0.00    +0.000 C 
ATOM     48  O   UNL     1      63.767  59.026  53.874  0.00  0.00    +0.000 OA
ATOM     49  C   UNL     1      63.517  60.052  53.771  0.00  0.00    +0.000 C 
ATOM     50  O   UNL     1      63.798  59.905  54.533  0.00  0.00    +0.000 OA
ATOM     51  C   UNL     1      63.286  60.814  53.556  0.00  0.00    +0.000 C 
ATOM     52  C   UNL     1      63.336  61.430  54.104  0.00  0.00    +0.000 C 
ATOM     53  O   UNL     1      63.005  60.961  52.795  0.00  0.00    +0.000 OA
ATOM     54  C   UNL     1      62.163  61.401  50.510  0.00  0.00    +0.000 C 
ATOM     55  C   UNL     1      61.932  62.164  50.295  0.00  0.00    +0.000 C 
ATOM     56  O   UNL     1      61.652  62.311  49.534  0.00  0.00    +0.000 OA
ATOM     57  N   UNL     1      62.114  60.786  49.963  0.00  0.00    +0.000 NA
ATOM     58  C   UNL     1      61.833  60.933  49.201  0.00  0.00    +0.000 C 
ATOM     59  C   UNL     1      62.345  60.024  50.178  0.00  0.00    +0.000 C 
ENDROOT
TORSDOF 0
ENDMDL
MODEL 3
REMARK VINA RESULT:   -16.018      2.138      7.640
REMARK INTER + INTRA:         -16.018
REMARK INTER:                 -16.018
REMARK INTRA:                   0.000
REMARK UNBOUND:                 0.000
ROOT
REMARK  Name = Spiramycin I
REMARK                            x       y       z     vdW  Elec       q    Type
REMARK                         _______ _______ _______ _____ _____    ______ ____
ATOM      1  C   UNL     1      62.672  62.371  54.081  0.00  0.00    +0.000 C 
ATOM      2  O   UNL     1      62.646  62.595  53.287  0.00  0.00    +0.000 OA
ATOM      3  C   UNL     1      62.486  63.378  53.085  0.00  0.00    +0.000 C 
ATOM      4  C   UNL     1      62.512  63.155  53.878  0.00  0.00    +0.000 C 
ATOM      5  O   UNL     1      62.605  62.634  54.511  0.00  0.00    +0.000 OA
ATOM      6  C   UNL     1      62.378  63.714  54.469  0.00  0.00    +0.000 C 
ATOM      7  C   UNL     1      62.218  64.497  54.267  0.00  0.00    +0.000 C 
ATOM      8  O   UNL     1      62.191  64.722  53.474  0.00  0.00    +0.000 OA
ATOM      9  O   UNL     1      62.084  65.057  54.858  0.00  0.00    +0.000 OA
ATOM     10  C   UNL     1      61.923  65.841  54.656  0.00  0.00    +0.000 C 
ATOM     11  C   UNL     1      61.790  66.400  55.248  0.00  0.00    +0.000 C 
ATOM     12  C   UNL     1      61.897  66.064  53.863  0.00  0.00    +0.000 C 
ATOM     13  C   UNL     1      62.031  65.506  53.272  0.00  0.00    +0.000 C 
ATOM     14  C   UNL     1      62.004  65.729  52.478  0.00  0.00    +0.000 C 
ATOM     15  C   UNL     1      62.138  65.170  51.887  0.00  0.00    +0.000 C 
ATOM     16  C   UNL     1      62.112  65.394  51.093  0.00  0.00    +0.000 C 
ATOM     17  C   UNL     1      62.245  64.835  50.502  0.00  0.00    +0.000 C 
ATOM     18  O   UNL     1      62.219  65.058  49.708  0.00  0.00    +0.000 OA
ATOM     19  C   UNL     1      62.059  65.842  49.506  0.00  0.00    +0.000 C 
ATOM     20  C   UNL     1      62.032  66.067  48.713  0.00  0.00    +0.000 C 
ATOM     21  C   UNL     1      61.872  66.850  48.511  0.00  0.00    +0.000 C 
ATOM     22  C   UNL     1      61.738  67.409  49.102  0.00  0.00    +0.000 C 
ATOM     23  C   UNL     1      61.764  67.186  49.895  0.00  0.00    +0.000 C 
ATOM     24  C   UNL     1      61.631  67.744  50.486  0.00  0.00    +0.000 C 
ATOM     25  O   UNL     1      61.925  66.402  50.098  0.00  0.00    +0.000 OA
ATOM     26  N   UNL     1      61.578  68.193  48.899  0.00  0.00    +0.000 NA
ATOM     27  C   UNL     1      61.444  68.753  49.491  0.00  0.00    +0.000 C 
ATOM     28  C   UNL     1      61.551  68.417  48.106  0.00  0.00    +0.000 C 
ATOM     29  C   UNL     1      62.406  64.051  50.704  0.00  0.00    +0.000 C 
ATOM     30  C   UNL     1      62.540  63.491  50.112  0.00  0.00    +0.000 C 
ATOM     31  C   UNL     1      62.432  63.826  51.497  0.00  0.00    +0.000 C 
ATOM     32  C   UNL     1      62.593  63.043  51.700  0.00  0.00    +0.000 C 
ATOM     33  C   UNL     1      62.727  62.484  51.109  0.00  0.00    +0.000 C 
ATOM     34  C   UNL     1      62.887  61.700  51.311  0.00  0.00    +0.000 C 
ATOM     35  O   UNL     1      63.021  61.140  50.719  0.00  0.00    +0.000 OA
ATOM     36  C   UNL     1      62.619  62.819  52.494  0.00  0.00    +0.000 C 
ATOM     37  O   UNL     1      62.753  62.134  52.933  0.00  0.00    +0.000 OA
ATOM     38  C   UNL     1      62.913  61.422  52.547  0.00  0.00    +0.000 C 
ATOM     39  O   UNL     1      62.941  61.396  51.724  0.00  0.00    +0.000 OA
ATOM     40  C   UNL     1      63.101  60.683  51.340  0.00  0.00    +0.000 C 
ATOM     41  C   UNL     1      63.129  60.657  50.515  0.00  0.00    +0.000 C 
ATOM     42  C   UNL     1      63.235  59.998  51.779  0.00  0.00    +0.000 C 
ATOM     43  O   UNL     1      63.395  59.286  51.393  0.00  0.00    +0.000 OA
ATOM     44  C   UNL     1      63.423  59.259  50.569  0.00  0.00    +0.000 C 
ATOM     45  C   UNL     1      63.583  58.547  50.184  0.00  0.00    +0.000 C 
ATOM     46  C   UNL     1      63.611  58.521  49.360  0.00  0.00    +0.000 C 
ATOM     47  C   UNL     1      63.773  57.731  49.535  0.00  0.00    +0.000 C 
ATOM     48  O   UNL     1      63.694  58.221  48.597  0.00  0.00    +0.000 OA
ATOM     49  C   UNL     1      63.477  59.206  48.922  0.00  0.00    +0.000 C 
ATOM     50  O   UNL     1      63.504  59.180  48.098  0.00  0.00    +0.000 OA
ATOM     51  C   UNL     1      63.317  59.918  49.307  0.00  0.00    +0.000 C 
ATOM     52  C   UNL     1      63.183  60.604  48.867  0.00  0.00    +0.000 C 
ATOM     53  O   UNL     1      63.289  59.945  50.131  0.00  0.00    +0.000 OA
ATOM     54  C   UNL     1      63.207  60.024  52.602  0.00  0.00    +0.000 C 
ATOM     55  C   UNL     1      63.047  60.736  52.988  0.00  0.00    +0.000 C 
ATOM     56  O   UNL     1      63.019  60.763  53.811  0.00  0.00    +0.000 OA
ATOM     57  N   UNL     1      63.341  59.339  53.041  0.00  0.00    +0.000 NA
ATOM     58  C   UNL     1      63.314  59.365  53.866  0.00  0.00    +0.000 C 
ATOM     59  C   UNL     1      63.501  58.627  52.657  0.00  0.00    +0.000 C 
ENDROOT
TORSDOF 0
ENDMDL
MODEL 4
REMARK VINA RESULT:   -15.564      1.780      7.283
REMARK INTER + INTRA:         -15.564
REMARK INTER:                 -15.564
REMARK INTRA:                   0.000
REMARK UNBOUND:                 0.000
ROOT
REMARK  Name = Spiramycin I
REMARK                            x       y       z     vdW  Elec       q    Type
REMARK                         _______ _______ _______ _____ _____    ______ ____
ATOM      1  C   UNL     1      62.511  64.566  54.329  0.00  0.00    +0.000 C 
ATOM      2  O   UNL     1      62.364  64.768  53.542  0.00  0.00    +0.000 OA
ATOM      3  C   UNL     1      62.216  65.554  53.340  0.00  0.00    +0.000 C 
ATOM      4  C   UNL     1      62.363  65.352  54.126  0.00  0.00    +0.000 C 
ATOM      5  O   UNL     1      62.532  64.844  54.754  0.00  0.00    +0.000 OA
ATOM      6  C   UNL     1      62.362  65.935  54.709  0.00  0.00    +0.000 C 
ATOM      7  C   UNL     1      62.214  66.721  54.507  0.00  0.00    +0.000 C 
ATOM      8  O   UNL     1      62.067  66.924  53.721  0.00  0.00    +0.000 OA
ATOM      9  O   UNL     1      62.213  67.304  55.090  0.00  0.00    +0.000 OA
ATOM     10  C   UNL     1      62.065  68.090  54.887  0.00  0.00    +0.000 C 
ATOM     11  C   UNL     1      62.064  68.673  55.471  0.00  0.00    +0.000 C 
ATOM     12  C   UNL     1      61.918  68.292  54.102  0.00  0.00    +0.000 C 
ATOM     13  C   UNL     1      61.919  67.710  53.518  0.00  0.00    +0.000 C 
ATOM     14  C   UNL     1      61.772  67.912  52.732  0.00  0.00    +0.000 C 
ATOM     15  C   UNL     1      61.773  67.329  52.149  0.00  0.00    +0.000 C 
ATOM     16  C   UNL     1      61.627  67.532  51.362  0.00  0.00    +0.000 C 
ATOM     17  C   UNL     1      61.628  66.949  50.779  0.00  0.00    +0.000 C 
ATOM     18  O   UNL     1      61.481  67.151  49.992  0.00  0.00    +0.000 OA
ATOM     19  C   UNL     1      61.333  67.937  49.790  0.00  0.00    +0.000 C 
ATOM     20  C   UNL     1      61.186  68.141  49.004  0.00  0.00    +0.000 C 
ATOM     21  C   UNL     1      61.038  68.927  48.802  0.00  0.00    +0.000 C 
ATOM     22  C   UNL     1      61.037  69.509  49.385  0.00  0.00    +0.000 C 
ATOM     23  C   UNL     1      61.184  69.307  50.171  0.00  0.00    +0.000 C 
ATOM     24  C   UNL     1      61.183  69.890  50.754  0.00  0.00    +0.000 C 
ATOM     25  O   UNL     1      61.332  68.521  50.374  0.00  0.00    +0.000 OA
ATOM     26  N   UNL     1      60.890  70.295  49.182  0.00  0.00    +0.000 NA
ATOM     27  C   UNL     1      60.889  70.879  49.766  0.00  0.00    +0.000 C 
ATOM     28  C   UNL     1      60.743  70.498  48.396  0.00  0.00    +0.000 C 
ATOM     29  C   UNL     1      61.776  66.163  50.981  0.00  0.00    +0.000 C 
ATOM     30  C   UNL     1      61.777  65.579  50.398  0.00  0.00    +0.000 C 
ATOM     31  C   UNL     1      61.922  65.960  51.767  0.00  0.00    +0.000 C 
ATOM     32  C   UNL     1      62.070  65.174  51.970  0.00  0.00    +0.000 C 
ATOM     33  C   UNL     1      62.071  64.591  51.387  0.00  0.00    +0.000 C 
ATOM     34  C   UNL     1      62.219  63.805  51.589  0.00  0.00    +0.000 C 
ATOM     35  O   UNL     1      62.220  63.221  51.005  0.00  0.00    +0.000 OA
ATOM     36  C   UNL     1      62.217  64.972  52.756  0.00  0.00    +0.000 C 
ATOM     37  O   UNL     1      62.384  64.292  53.193  0.00  0.00    +0.000 OA
ATOM     38  C   UNL     1      62.437  63.560  52.814  0.00  0.00    +0.000 C 
ATOM     39  O   UNL     1      62.324  63.510  51.999  0.00  0.00    +0.000 OA
ATOM     40  C   UNL     1      62.378  62.778  51.621  0.00  0.00    +0.000 C 
ATOM     41  C   UNL     1      62.265  62.727  50.805  0.00  0.00    +0.000 C 
ATOM     42  C   UNL     1      62.544  62.099  52.058  0.00  0.00    +0.000 C 
ATOM     43  O   UNL     1      62.598  61.368  51.678  0.00  0.00    +0.000 OA
ATOM     44  C   UNL     1      62.485  61.316  50.863  0.00  0.00    +0.000 C 
ATOM     45  C   UNL     1      62.538  60.585  50.484  0.00  0.00    +0.000 C 
ATOM     46  C   UNL     1      62.425  60.534  49.668  0.00  0.00    +0.000 C 
ATOM     47  C   UNL     1      62.570  59.740  49.844  0.00  0.00    +0.000 C 
ATOM     48  O   UNL     1      62.363  60.207  48.914  0.00  0.00    +0.000 OA
ATOM     49  C   UNL     1      62.259  61.213  49.232  0.00  0.00    +0.000 C 
ATOM     50  O   UNL     1      62.146  61.162  48.417  0.00  0.00    +0.000 OA
ATOM     51  C   UNL     1      62.205  61.944  49.611  0.00  0.00    +0.000 C 
ATOM     52  C   UNL     1      62.039  62.624  49.174  0.00  0.00    +0.000 C 
ATOM     53  O   UNL     1      62.318  61.996  50.426  0.00  0.00    +0.000 OA
ATOM     54  C   UNL     1      62.657  62.149  52.872  0.00  0.00    +0.000 C 
ATOM     55  C   UNL     1      62.604  62.881  53.252  0.00  0.00    +0.000 C 
ATOM     56  O   UNL     1      62.717  62.932  54.067  0.00  0.00    +0.000 OA
ATOM     57  N   UNL     1      62.824  61.470  53.309  0.00  0.00    +0.000 NA
ATOM     58  C   UNL     1      62.937  61.521  54.125  0.00  0.00    +0.000 C 
ATOM     59  C   UNL     1      62.877  60.740  52.931  0.00  0.00    +0.000 C 
ENDROOT
TORSDOF 0
ENDMDL
MODEL 5
REMARK VINA RESULT:   -14.479      2.000      6.472
REMARK INTER + INTRA:         -14.479
REMARK INTER:                 -14.479
REMARK INTRA:                   0.000
REMARK UNBOUND:                 0.000
ROOT
REMARK  Name = Spiramycin I
REMARK                            x       y       z     vdW  Elec       q    Type
REMARK                         _______ _______ _______ _____ _____    ______ ____
ATOM      1  C   UNL     1      61.896  66.343  49.092  0.00  0.00    +0.000 C 
ATOM      2  O   UNL     1      61.773  66.502  49.893  0.00  0.00    +0.000 OA
ATOM      3  C   UNL     1      61.483  67.237  50.127  0.00  0.00    +0.000 C 
ATOM      4  C   UNL     1      61.606  67.079  49.327  0.00  0.00    +0.000 C 
ATOM      5  O   UNL     1      61.826  66.624  48.674  0.00  0.00    +0.000 OA
ATOM      6  C   UNL     1      61.438  67.655  48.761  0.00  0.00    +0.000 C 
ATOM      7  C   UNL     1      61.147  68.390  48.995  0.00  0.00    +0.000 C 
ATOM      8  O   UNL     1      61.024  68.550  49.795  0.00  0.00    +0.000 OA
ATOM      9  O   UNL     1      60.980  68.967  48.430  0.00  0.00    +0.000 OA
ATOM     10  C   UNL     1      60.689  69.703  48.664  0.00  0.00    +0.000 C 
ATOM     11  C   UNL     1      60.521  70.279  48.098  0.00  0.00    +0.000 C 
ATOM     12  C   UNL     1      60.566  69.862  49.464  0.00  0.00    +0.000 C 
ATOM     13  C   UNL     1      60.733  69.286  50.029  0.00  0.00    +0.000 C 
ATOM     14  C   UNL     1      60.610  69.444  50.830  0.00  0.00    +0.000 C 
ATOM     15  C   UNL     1      60.777  68.868  51.395  0.00  0.00    +0.000 C 
ATOM     16  C   UNL     1      60.654  69.027  52.196  0.00  0.00    +0.000 C 
ATOM     17  C   UNL     1      60.822  68.451  52.761  0.00  0.00    +0.000 C 
ATOM     18  O   UNL     1      60.699  68.610  53.562  0.00  0.00    +0.000 OA
ATOM     19  C   UNL     1      60.408  69.345  53.796  0.00  0.00    +0.000 C 
ATOM     20  C   UNL     1      60.284  69.505  54.596  0.00  0.00    +0.000 C 
ATOM     21  C   UNL     1      59.994  70.241  54.830  0.00  0.00    +0.000 C 
ATOM     22  C   UNL     1      59.826  70.817  54.264  0.00  0.00    +0.000 C 
ATOM     23  C   UNL     1      59.949  70.658  53.464  0.00  0.00    +0.000 C 
ATOM     24  C   UNL     1      59.782  71.234  52.898  0.00  0.00    +0.000 C 
ATOM     25  O   UNL     1      60.240  69.922  53.230  0.00  0.00    +0.000 OA
ATOM     26  N   UNL     1      59.535  71.552  54.498  0.00  0.00    +0.000 NA
ATOM     27  C   UNL     1      59.368  72.129  53.932  0.00  0.00    +0.000 C 
ATOM     28  C   UNL     1      59.412  71.712  55.298  0.00  0.00    +0.000 C 
ATOM     29  C   UNL     1      61.113  67.715  52.527  0.00  0.00    +0.000 C 
ATOM     30  C   UNL     1      61.280  67.138  53.093  0.00  0.00    +0.000 C 
ATOM     31  C   UNL     1      61.236  67.556  51.727  0.00  0.00    +0.000 C 
ATOM     32  C   UNL     1      61.527  66.820  51.493  0.00  0.00    +0.000 C 
ATOM     33  C   UNL     1      61.694  66.244  52.059  0.00  0.00    +0.000 C 
ATOM     34  C   UNL     1      61.985  65.508  51.824  0.00  0.00    +0.000 C 
ATOM     35  O   UNL     1      62.153  64.931  52.391  0.00  0.00    +0.000 OA
ATOM     36  C   UNL     1      61.650  66.661  50.693  0.00  0.00    +0.000 C 
ATOM     37  O   UNL     1      61.919  66.036  50.226  0.00  0.00    +0.000 OA
ATOM     38  C   UNL     1      62.152  65.328  50.581  0.00  0.00    +0.000 C 
ATOM     39  O   UNL     1      62.116  65.246  51.400  0.00  0.00    +0.000 OA
ATOM     40  C   UNL     1      62.350  64.537  51.753  0.00  0.00    +0.000 C 
ATOM     41  C   UNL     1      62.314  64.455  52.574  0.00  0.00    +0.000 C 
ATOM     42  C   UNL     1      62.618  63.912  51.287  0.00  0.00    +0.000 C 
ATOM     43  O   UNL     1      62.852  63.204  51.642  0.00  0.00    +0.000 OA
ATOM     44  C   UNL     1      62.816  63.121  52.462  0.00  0.00    +0.000 C 
ATOM     45  C   UNL     1      63.050  62.413  52.815  0.00  0.00    +0.000 C 
ATOM     46  C   UNL     1      63.014  62.331  53.635  0.00  0.00    +0.000 C 
ATOM     47  C   UNL     1      63.306  61.587  53.428  0.00  0.00    +0.000 C 
ATOM     48  O   UNL     1      63.080  61.990  54.383  0.00  0.00    +0.000 OA
ATOM     49  C   UNL     1      62.746  62.956  54.101  0.00  0.00    +0.000 C 
ATOM     50  O   UNL     1      62.710  62.874  54.921  0.00  0.00    +0.000 OA
ATOM     51  C   UNL     1      62.512  63.664  53.747  0.00  0.00    +0.000 C 
ATOM     52  C   UNL     1      62.243  64.289  54.214  0.00  0.00    +0.000 C 
ATOM     53  O   UNL     1      62.548  63.747  52.927  0.00  0.00    +0.000 OA
ATOM     54  C   UNL     1      62.654  63.994  50.468  0.00  0.00    +0.000 C 
ATOM     55  C   UNL     1      62.421  64.702  50.113  0.00  0.00    +0.000 C 
ATOM     56  O   UNL     1      62.456  64.785  49.294  0.00  0.00    +0.000 OA
ATOM     57  N   UNL     1      62.922  63.370  50.001  0.00  0.00    +0.000 NA
ATOM     58  C   UNL     1      62.958  63.452  49.181  0.00  0.00    +0.000 C 
ATOM     59  C   UNL     1      63.156  62.662  50.355  0.00  0.00    +0.000 C 
ENDROOT
TORSDOF 0
ENDMDL
MODEL 6
REMARK VINA RESULT:   -14.467      3.027      4.978
REMARK INTER + INTRA:         -14.467
REMARK INTER:                 -14.467
REMARK INTRA:                   0.000
REMARK UNBOUND:                 0.000
ROOT
REMARK  Name = Spiramycin I
REMARK                            x       y       z     vdW  Elec       q    Type
REMARK                         _______ _______ _______ _____ _____    ______ ____
ATOM      1  C   UNL     1      60.717  70.386  49.533  0.00  0.00    +0.000 C 
ATOM      2  O   UNL     1      60.667  70.048  50.284  0.00  0.00    +0.000 OA
ATOM      3  C   UNL     1      60.982  69.297  50.420  0.00  0.00    +0.000 C 
ATOM      4  C   UNL     1      61.032  69.635  49.669  0.00  0.00    +0.000 C 
ATOM      5  O   UNL     1      60.918  70.218  49.096  0.00  0.00    +0.000 OA
ATOM      6  C   UNL     1      61.397  69.224  49.055  0.00  0.00    +0.000 C 
ATOM      7  C   UNL     1      61.712  68.474  49.191  0.00  0.00    +0.000 C 
ATOM      8  O   UNL     1      61.662  68.135  49.941  0.00  0.00    +0.000 OA
ATOM      9  O   UNL     1      62.076  68.061  48.577  0.00  0.00    +0.000 OA
ATOM     10  C   UNL     1      62.391  67.311  48.713  0.00  0.00    +0.000 C 
ATOM     11  C   UNL     1      62.756  66.899  48.098  0.00  0.00    +0.000 C 
ATOM     12  C   UNL     1      62.341  66.973  49.463  0.00  0.00    +0.000 C 
ATOM     13  C   UNL     1      61.977  67.384  50.077  0.00  0.00    +0.000 C 
ATOM     14  C   UNL     1      61.927  67.047  50.829  0.00  0.00    +0.000 C 
ATOM     15  C   UNL     1      61.562  67.458  51.443  0.00  0.00    +0.000 C 
ATOM     16  C   UNL     1      61.512  67.120  52.194  0.00  0.00    +0.000 C 
ATOM     17  C   UNL     1      61.147  67.532  52.808  0.00  0.00    +0.000 C 
ATOM     18  O   UNL     1      61.097  67.194  53.560  0.00  0.00    +0.000 OA
ATOM     19  C   UNL     1      61.412  66.443  53.696  0.00  0.00    +0.000 C 
ATOM     20  C   UNL     1      61.362  66.105  54.446  0.00  0.00    +0.000 C 
ATOM     21  C   UNL     1      61.677  65.354  54.582  0.00  0.00    +0.000 C 
ATOM     22  C   UNL     1      62.042  64.943  53.968  0.00  0.00    +0.000 C 
ATOM     23  C   UNL     1      62.092  65.281  53.217  0.00  0.00    +0.000 C 
ATOM     24  C   UNL     1      62.456  64.869  52.602  0.00  0.00    +0.000 C 
ATOM     25  O   UNL     1      61.777  66.031  53.081  0.00  0.00    +0.000 OA
ATOM     26  N   UNL     1      62.357  64.193  54.104  0.00  0.00    +0.000 NA
ATOM     27  C   UNL     1      62.722  63.780  53.489  0.00  0.00    +0.000 C 
ATOM     28  C   UNL     1      62.307  63.854  54.854  0.00  0.00    +0.000 C 
ATOM     29  C   UNL     1      60.832  68.282  52.672  0.00  0.00    +0.000 C 
ATOM     30  C   UNL     1      60.467  68.694  53.287  0.00  0.00    +0.000 C 
ATOM     31  C   UNL     1      60.882  68.621  51.922  0.00  0.00    +0.000 C 
ATOM     32  C   UNL     1      60.567  69.371  51.786  0.00  0.00    +0.000 C 
ATOM     33  C   UNL     1      60.203  69.782  52.400  0.00  0.00    +0.000 C 
ATOM     34  C   UNL     1      59.888  70.533  52.264  0.00  0.00    +0.000 C 
ATOM     35  O   UNL     1      59.523  70.945  52.879  0.00  0.00    +0.000 OA
ATOM     36  C   UNL     1      60.617  69.709  51.035  0.00  0.00    +0.000 C 
ATOM     37  O   UNL     1      60.392  70.410  50.661  0.00  0.00    +0.000 OA
ATOM     38  C   UNL     1      59.997  70.996  51.089  0.00  0.00    +0.000 C 
ATOM     39  O   UNL     1      59.829  70.881  51.887  0.00  0.00    +0.000 OA
ATOM     40  C   UNL     1      59.434  71.468  52.314  0.00  0.00    +0.000 C 
ATOM     41  C   UNL     1      59.266  71.353  53.113  0.00  0.00    +0.000 C 
ATOM     42  C   UNL     1      59.209  72.167  51.941  0.00  0.00    +0.000 C 
ATOM     43  O   UNL     1      58.815  72.753  52.368  0.00  0.00    +0.000 OA
ATOM     44  C   UNL     1      58.646  72.639  53.167  0.00  0.00    +0.000 C 
ATOM     45  C   UNL     1      58.252  73.225  53.594  0.00  0.00    +0.000 C 
ATOM     46  C   UNL     1      58.083  73.111  54.393  0.00  0.00    +0.000 C 
ATOM     47  C   UNL     1      57.760  73.862  54.284  0.00  0.00    +0.000 C 
ATOM     48  O   UNL     1      57.802  73.257  55.154  0.00  0.00    +0.000 OA
ATOM     49  C   UNL     1      58.308  72.411  54.765  0.00  0.00    +0.000 C 
ATOM     50  O   UNL     1      58.140  72.296  55.565  0.00  0.00    +0.000 OA
ATOM     51  C   UNL     1      58.703  71.825  54.339  0.00  0.00    +0.000 C 
ATOM     52  C   UNL     1      58.928  71.124  54.712  0.00  0.00    +0.000 C 
ATOM     53  O   UNL     1      58.872  71.939  53.539  0.00  0.00    +0.000 OA
ATOM     54  C   UNL     1      59.378  72.282  51.142  0.00  0.00    +0.000 C 
ATOM     55  C   UNL     1      59.772  71.696  50.715  0.00  0.00    +0.000 C 
ATOM     56  O   UNL     1      59.941  71.810  49.916  0.00  0.00    +0.000 OA
ATOM     57  N   UNL     1      59.152  72.982  50.769  0.00  0.00    +0.000 NA
ATOM     58  C   UNL     1      59.321  73.097  49.969  0.00  0.00    +0.000 C 
ATOM     59  C   UNL     1      58.758  73.568  51.195  0.00  0.00    +0.000 C 
ENDROOT
TORSDOF 0
ENDMDL
