MODEL 1
REMARK VINA RESULT:   -13.861      0.000      0.000
REMARK INTER + INTRA:         -13.861
REMARK INTER:                 -13.861
REMARK INTRA:                   0.000
REMARK UNBOUND:                 0.000
ROOT
REMARK  Name = stanozolol
REMARK                            x       y       z     vdW  Elec       q    Type
REMARK                         _______ _______ _______ _____ _____    ______ ____
ATOM      1  C   UNL     1      62.040  61.246  63.428  0.00  0.00    +0.000 C 
ATOM      2  C   UNL     1      61.765  61.538  64.149  0.00  0.00    +0.000 C 
ATOM      3  O   UNL     1      62.524  61.853  64.212  0.00  0.00    +0.000 OA
ATOM      4  C   UNL     1      61.062  61.161  63.934  0.00  0.00    +0.000 C 
ATOM      5  C   UNL     1      60.512  61.287  64.536  0.00  0.00    +0.000 C 
ATOM      6  C   UNL     1      60.874  61.741  65.122  0.00  0.00    +0.000 C 
ATOM      7  C   UNL     1      60.599  62.033  65.843  0.00  0.00    +0.000 C 
ATOM      8  C   UNL     1      59.825  61.878  66.083  0.00  0.00    +0.000 C 
ATOM      9  C   UNL     1      59.549  62.169  66.803  0.00  0.00    +0.000 C 
ATOM     10  C   UNL     1      60.048  62.617  67.285  0.00  0.00    +0.000 C 
ATOM     11  C   UNL     1      59.773  62.908  68.005  0.00  0.00    +0.000 C 
ATOM     12  C   UNL     1      60.271  63.356  68.487  0.00  0.00    +0.000 A 
ATOM     13  C   UNL     1      61.045  63.511  68.248  0.00  0.00    +0.000 A 
ATOM     14  C   UNL     1      61.320  63.219  67.527  0.00  0.00    +0.000 C 
ATOM     15  C   UNL     1      60.822  62.772  67.045  0.00  0.00    +0.000 C 
ATOM     16  C   UNL     1      61.596  62.927  66.806  0.00  0.00    +0.000 C 
ATOM     17  C   UNL     1      61.097  62.480  66.325  0.00  0.00    +0.000 C 
ATOM     18  C   UNL     1      61.871  62.635  66.085  0.00  0.00    +0.000 C 
ATOM     19  C   UNL     1      62.146  62.343  65.364  0.00  0.00    +0.000 C 
ATOM     20  C   UNL     1      61.648  61.896  64.883  0.00  0.00    +0.000 C 
ATOM     21  C   UNL     1      62.404  62.006  64.572  0.00  0.00    +0.000 C 
ATOM     22  C   UNL     1      61.407  63.965  68.834  0.00  0.00    +0.000 A 
ATOM     23  N   UNL     1      60.856  64.091  69.436  0.00  0.00    +0.000 NA
ATOM     24  N   UNL     1      60.154  63.714  69.221  0.00  0.00    +0.000 NA
ENDROOT
TORSDOF 0
ENDMDL
MODEL 2
REMARK VINA RESULT:   -13.163      2.213      3.935
REMARK INTER + INTRA:         -13.163
REMARK INTER:                 -13.163
REMARK INTRA:                   0.000
REMARK UNBOUND:                 0.000
ROOT
REMARK  Name = stanozolol
REMARK                            x       y       z     vdW  Elec       q    Type
REMARK                         _______ _______ _______ _____ _____    ______ ____
ATOM      1  C   UNL     1      60.797  63.761  69.301  0.00  0.00    +0.000 C 
ATOM      2  C   UNL     1      60.845  63.409  68.557  0.00  0.00    +0.000 C 
ATOM      3  O   UNL     1      61.622  63.685  68.573  0.00  0.00    +0.000 OA
ATOM      4  C   UNL     1      60.058  63.207  68.698  0.00  0.00    +0.000 C 
ATOM      5  C   UNL     1      59.782  62.787  68.043  0.00  0.00    +0.000 C 
ATOM      6  C   UNL     1      60.399  62.730  67.498  0.00  0.00    +0.000 C 
ATOM      7  C   UNL     1      60.448  62.378  66.753  0.00  0.00    +0.000 C 
ATOM      8  C   UNL     1      59.791  61.993  66.435  0.00  0.00    +0.000 C 
ATOM      9  C   UNL     1      59.838  61.641  65.692  0.00  0.00    +0.000 C 
ATOM     10  C   UNL     1      60.544  61.673  65.264  0.00  0.00    +0.000 C 
ATOM     11  C   UNL     1      60.592  61.322  64.521  0.00  0.00    +0.000 C 
ATOM     12  C   UNL     1      61.297  61.354  64.093  0.00  0.00    +0.000 A 
ATOM     13  C   UNL     1      61.954  61.738  64.411  0.00  0.00    +0.000 A 
ATOM     14  C   UNL     1      61.906  62.090  65.156  0.00  0.00    +0.000 C 
ATOM     15  C   UNL     1      61.201  62.058  65.582  0.00  0.00    +0.000 C 
ATOM     16  C   UNL     1      61.858  62.443  65.900  0.00  0.00    +0.000 C 
ATOM     17  C   UNL     1      61.152  62.410  66.327  0.00  0.00    +0.000 C 
ATOM     18  C   UNL     1      61.810  62.795  66.645  0.00  0.00    +0.000 C 
ATOM     19  C   UNL     1      61.761  63.147  67.389  0.00  0.00    +0.000 C 
ATOM     20  C   UNL     1      61.056  63.115  67.816  0.00  0.00    +0.000 C 
ATOM     21  C   UNL     1      61.664  63.516  68.203  0.00  0.00    +0.000 C 
ATOM     22  C   UNL     1      62.571  61.681  63.866  0.00  0.00    +0.000 A 
ATOM     23  N   UNL     1      62.296  61.262  63.211  0.00  0.00    +0.000 NA
ATOM     24  N   UNL     1      61.508  61.059  63.352  0.00  0.00    +0.000 NA
ENDROOT
TORSDOF 0
ENDMDL
MODEL 3
REMARK VINA RESULT:   -12.360      2.767      5.228
REMARK INTER + INTRA:         -12.360
REMARK INTER:                 -12.360
REMARK INTRA:                   0.000
REMARK UNBOUND:                 0.000
ROOT
REMARK  Name = stanozolol
REMARK                            x       y       z     vdW  Elec       q    Type
REMARK                         _______ _______ _______ _____ _____    ______ ____
ATOM      1  C   UNL     1      61.806  64.156  72.845  0.00  0.00    +0.000 C 
ATOM      2  C   UNL     1      61.632  63.859  72.095  0.00  0.00    +0.000 C 
ATOM      3  O   UNL     1      62.036  64.529  71.833  0.00  0.00    +0.000 OA
ATOM      4  C   UNL     1      61.265  63.252  72.516  0.00  0.00    +0.000 C 
ATOM      5  C   UNL     1      60.949  62.720  71.970  0.00  0.00    +0.000 C 
ATOM      6  C   UNL     1      61.121  62.999  71.212  0.00  0.00    +0.000 C 
ATOM      7  C   UNL     1      60.948  62.702  70.462  0.00  0.00    +0.000 C 
ATOM      8  C   UNL     1      60.525  61.998  70.384  0.00  0.00    +0.000 C 
ATOM      9  C   UNL     1      60.352  61.701  69.635  0.00  0.00    +0.000 C 
ATOM     10  C   UNL     1      60.601  62.109  68.962  0.00  0.00    +0.000 C 
ATOM     11  C   UNL     1      60.428  61.813  68.212  0.00  0.00    +0.000 C 
ATOM     12  C   UNL     1      60.677  62.220  67.539  0.00  0.00    +0.000 A 
ATOM     13  C   UNL     1      61.100  62.925  67.617  0.00  0.00    +0.000 A 
ATOM     14  C   UNL     1      61.273  63.221  68.367  0.00  0.00    +0.000 C 
ATOM     15  C   UNL     1      61.024  62.814  69.040  0.00  0.00    +0.000 C 
ATOM     16  C   UNL     1      61.446  63.518  69.118  0.00  0.00    +0.000 C 
ATOM     17  C   UNL     1      61.197  63.110  69.790  0.00  0.00    +0.000 C 
ATOM     18  C   UNL     1      61.620  63.814  69.868  0.00  0.00    +0.000 C 
ATOM     19  C   UNL     1      61.793  64.110  70.618  0.00  0.00    +0.000 C 
ATOM     20  C   UNL     1      61.544  63.703  71.290  0.00  0.00    +0.000 C 
ATOM     21  C   UNL     1      61.959  64.396  71.454  0.00  0.00    +0.000 C 
ATOM     22  C   UNL     1      61.272  63.203  66.860  0.00  0.00    +0.000 A 
ATOM     23  N   UNL     1      60.956  62.672  66.314  0.00  0.00    +0.000 NA
ATOM     24  N   UNL     1      60.588  62.064  66.735  0.00  0.00    +0.000 NA
ENDROOT
TORSDOF 0
ENDMDL
MODEL 4
REMARK VINA RESULT:   -12.113      2.184      3.535
REMARK INTER + INTRA:         -12.113
REMARK INTER:                 -12.113
REMARK INTRA:                   0.000
REMARK UNBOUND:                 0.000
ROOT
REMARK  Name = stanozolol
REMARK                            x       y       z     vdW  Elec       q    Type
REMARK                         _______ _______ _______ _____ _____    ______ ____
ATOM      1  C   UNL     1      60.447  62.712  66.390  0.00  0.00    +0.000 C 
ATOM      2  C   UNL     1      60.565  62.744  67.206  0.00  0.00    +0.000 C 
ATOM      3  O   UNL     1      60.912  63.473  67.040  0.00  0.00    +0.000 OA
ATOM      4  C   UNL     1      60.193  62.007  67.201  0.00  0.00    +0.000 C 
ATOM      5  C   UNL     1      60.154  61.737  67.979  0.00  0.00    +0.000 C 
ATOM      6  C   UNL     1      60.501  62.306  68.465  0.00  0.00    +0.000 C 
ATOM      7  C   UNL     1      60.619  62.338  69.281  0.00  0.00    +0.000 C 
ATOM      8  C   UNL     1      60.365  61.715  69.759  0.00  0.00    +0.000 C 
ATOM      9  C   UNL     1      60.483  61.746  70.575  0.00  0.00    +0.000 C 
ATOM     10  C   UNL     1      60.855  62.401  70.913  0.00  0.00    +0.000 C 
ATOM     11  C   UNL     1      60.973  62.432  71.728  0.00  0.00    +0.000 C 
ATOM     12  C   UNL     1      61.345  63.086  72.067  0.00  0.00    +0.000 A 
ATOM     13  C   UNL     1      61.599  63.709  71.589  0.00  0.00    +0.000 A 
ATOM     14  C   UNL     1      61.481  63.677  70.773  0.00  0.00    +0.000 C 
ATOM     15  C   UNL     1      61.109  63.023  70.435  0.00  0.00    +0.000 C 
ATOM     16  C   UNL     1      61.363  63.646  69.957  0.00  0.00    +0.000 C 
ATOM     17  C   UNL     1      60.991  62.991  69.619  0.00  0.00    +0.000 C 
ATOM     18  C   UNL     1      61.245  63.614  69.141  0.00  0.00    +0.000 C 
ATOM     19  C   UNL     1      61.127  63.582  68.325  0.00  0.00    +0.000 C 
ATOM     20  C   UNL     1      60.756  62.928  67.987  0.00  0.00    +0.000 C 
ATOM     21  C   UNL     1      60.979  63.505  67.442  0.00  0.00    +0.000 C 
ATOM     22  C   UNL     1      61.946  64.278  72.075  0.00  0.00    +0.000 A 
ATOM     23  N   UNL     1      61.907  64.007  72.853  0.00  0.00    +0.000 NA
ATOM     24  N   UNL     1      61.535  63.270  72.848  0.00  0.00    +0.000 NA
ENDROOT
TORSDOF 0
ENDMDL
MODEL 5
REMARK VINA RESULT:   -12.091      5.174      6.709
REMARK INTER + INTRA:         -12.091
REMARK INTER:                 -12.091
REMARK INTRA:                   0.000
REMARK UNBOUND:                 0.000
ROOT
REMARK  Name = stanozolol
REMARK                            x       y       z     vdW  Elec       q    Type
REMARK                         _______ _______ _______ _____ _____    ______ ____
ATOM      1  C   UNL     1      65.763  67.632  70.710  0.00  0.00    +0.000 C 
ATOM      2  C   UNL     1      65.196  67.038  70.787  0.00  0.00    +0.000 C 
ATOM      3  O   UNL     1      65.052  67.390  71.519  0.00  0.00    +0.000 OA
ATOM      4  C   UNL     1      65.459  66.811  70.039  0.00  0.00    +0.000 C 
ATOM      5  C   UNL     1      65.024  66.149  69.806  0.00  0.00    +0.000 C 
ATOM      6  C   UNL     1      64.492  65.968  70.411  0.00  0.00    +0.000 C 
ATOM      7  C   UNL     1      63.925  65.374  70.488  0.00  0.00    +0.000 C 
ATOM      8  C   UNL     1      63.818  64.825  69.881  0.00  0.00    +0.000 C 
ATOM      9  C   UNL     1      63.251  64.231  69.957  0.00  0.00    +0.000 C 
ATOM     10  C   UNL     1      62.790  64.185  70.641  0.00  0.00    +0.000 C 
ATOM     11  C   UNL     1      62.223  63.592  70.717  0.00  0.00    +0.000 C 
ATOM     12  C   UNL     1      61.762  63.546  71.400  0.00  0.00    +0.000 A 
ATOM     13  C   UNL     1      61.869  64.096  72.006  0.00  0.00    +0.000 A 
ATOM     14  C   UNL     1      62.436  64.690  71.929  0.00  0.00    +0.000 C 
ATOM     15  C   UNL     1      62.897  64.735  71.247  0.00  0.00    +0.000 C 
ATOM     16  C   UNL     1      63.004  65.284  71.853  0.00  0.00    +0.000 C 
ATOM     17  C   UNL     1      63.464  65.329  71.170  0.00  0.00    +0.000 C 
ATOM     18  C   UNL     1      63.571  65.879  71.776  0.00  0.00    +0.000 C 
ATOM     19  C   UNL     1      64.138  66.473  71.699  0.00  0.00    +0.000 C 
ATOM     20  C   UNL     1      64.599  66.518  71.017  0.00  0.00    +0.000 C 
ATOM     21  C   UNL     1      64.767  67.102  71.573  0.00  0.00    +0.000 C 
ATOM     22  C   UNL     1      61.338  63.915  72.611  0.00  0.00    +0.000 A 
ATOM     23  N   UNL     1      60.902  63.253  72.378  0.00  0.00    +0.000 NA
ATOM     24  N   UNL     1      61.165  63.026  71.630  0.00  0.00    +0.000 NA
ENDROOT
TORSDOF 0
ENDMDL
MODEL 6
REMARK VINA RESULT:   -12.013      5.222      6.336
REMARK INTER + INTRA:         -12.013
REMARK INTER:                 -12.013
REMARK INTRA:                   0.000
REMARK UNBOUND:                 0.000
ROOT
REMARK  Name = stanozolol
REMARK                            x       y       z     vdW  Elec       q    Type
REMARK                         _______ _______ _______ _____ _____    ______ ____
ATOM      1  C   UNL     1      62.010  61.210  72.099  0.00  0.00    +0.000 C 
ATOM      2  C   UNL     1      61.618  61.935  72.054  0.00  0.00    +0.000 C 
ATOM      3  O   UNL     1      61.840  62.005  72.845  0.00  0.00    +0.000 OA
ATOM      4  C   UNL     1      61.478  61.712  71.272  0.00  0.00    +0.000 C 
ATOM      5  C   UNL     1      61.046  62.314  70.909  0.00  0.00    +0.000 C 
ATOM      6  C   UNL     1      60.919  62.908  71.466  0.00  0.00    +0.000 C 
ATOM      7  C   UNL     1      60.527  63.633  71.421  0.00  0.00    +0.000 C 
ATOM      8  C   UNL     1      60.174  63.868  70.713  0.00  0.00    +0.000 C 
ATOM      9  C   UNL     1      59.782  64.591  70.667  0.00  0.00    +0.000 C 
ATOM     10  C   UNL     1      59.744  65.083  71.330  0.00  0.00    +0.000 C 
ATOM     11  C   UNL     1      59.352  65.806  71.285  0.00  0.00    +0.000 C 
ATOM     12  C   UNL     1      59.313  66.297  71.947  0.00  0.00    +0.000 A 
ATOM     13  C   UNL     1      59.666  66.063  72.654  0.00  0.00    +0.000 A 
ATOM     14  C   UNL     1      60.058  65.338  72.700  0.00  0.00    +0.000 C 
ATOM     15  C   UNL     1      60.097  64.848  72.038  0.00  0.00    +0.000 C 
ATOM     16  C   UNL     1      60.450  64.614  72.746  0.00  0.00    +0.000 C 
ATOM     17  C   UNL     1      60.489  64.123  72.083  0.00  0.00    +0.000 C 
ATOM     18  C   UNL     1      60.842  63.889  72.791  0.00  0.00    +0.000 C 
ATOM     19  C   UNL     1      61.234  63.164  72.836  0.00  0.00    +0.000 C 
ATOM     20  C   UNL     1      61.273  62.674  72.174  0.00  0.00    +0.000 C 
ATOM     21  C   UNL     1      61.650  62.368  72.840  0.00  0.00    +0.000 C 
ATOM     22  C   UNL     1      59.539  66.658  73.212  0.00  0.00    +0.000 A 
ATOM     23  N   UNL     1      59.107  67.260  72.849  0.00  0.00    +0.000 NA
ATOM     24  N   UNL     1      58.968  67.036  72.067  0.00  0.00    +0.000 NA
ENDROOT
TORSDOF 0
ENDMDL
MODEL 7
REMARK VINA RESULT:   -11.949      5.858      7.173
REMARK INTER + INTRA:         -11.949
REMARK INTER:                 -11.949
REMARK INTRA:                   0.000
REMARK UNBOUND:                 0.000
ROOT
REMARK  Name = stanozolol
REMARK                            x       y       z     vdW  Elec       q    Type
REMARK                         _______ _______ _______ _____ _____    ______ ____
ATOM      1  C   UNL     1      60.901  63.389  72.094  0.00  0.00    +0.000 C 
ATOM      2  C   UNL     1      61.485  63.959  71.972  0.00  0.00    +0.000 C 
ATOM      3  O   UNL     1      61.701  63.477  71.339  0.00  0.00    +0.000 OA
ATOM      4  C   UNL     1      61.145  64.321  72.632  0.00  0.00    +0.000 C 
ATOM      5  C   UNL     1      61.565  65.015  72.785  0.00  0.00    +0.000 C 
ATOM      6  C   UNL     1      62.163  65.081  72.221  0.00  0.00    +0.000 C 
ATOM      7  C   UNL     1      62.747  65.651  72.100  0.00  0.00    +0.000 C 
ATOM      8  C   UNL     1      62.797  66.304  72.602  0.00  0.00    +0.000 C 
ATOM      9  C   UNL     1      63.381  66.874  72.482  0.00  0.00    +0.000 C 
ATOM     10  C   UNL     1      63.915  66.792  71.858  0.00  0.00    +0.000 C 
ATOM     11  C   UNL     1      64.499  67.361  71.737  0.00  0.00    +0.000 C 
ATOM     12  C   UNL     1      65.033  67.280  71.114  0.00  0.00    +0.000 A 
ATOM     13  C   UNL     1      64.983  66.627  70.611  0.00  0.00    +0.000 A 
ATOM     14  C   UNL     1      64.399  66.057  70.733  0.00  0.00    +0.000 C 
ATOM     15  C   UNL     1      63.865  66.139  71.356  0.00  0.00    +0.000 C 
ATOM     16  C   UNL     1      63.815  65.486  70.853  0.00  0.00    +0.000 C 
ATOM     17  C   UNL     1      63.281  65.569  71.477  0.00  0.00    +0.000 C 
ATOM     18  C   UNL     1      63.231  64.916  70.975  0.00  0.00    +0.000 C 
ATOM     19  C   UNL     1      62.647  64.346  71.096  0.00  0.00    +0.000 C 
ATOM     20  C   UNL     1      62.113  64.428  71.719  0.00  0.00    +0.000 C 
ATOM     21  C   UNL     1      61.996  63.750  71.265  0.00  0.00    +0.000 C 
ATOM     22  C   UNL     1      65.582  66.693  70.047  0.00  0.00    +0.000 A 
ATOM     23  N   UNL     1      66.002  67.387  70.201  0.00  0.00    +0.000 NA
ATOM     24  N   UNL     1      65.662  67.749  70.860  0.00  0.00    +0.000 NA
ENDROOT
TORSDOF 0
ENDMDL
MODEL 8
REMARK VINA RESULT:   -11.760      3.074      4.946
REMARK INTER + INTRA:         -11.760
REMARK INTER:                 -11.760
REMARK INTRA:                   0.000
REMARK UNBOUND:                 0.000
ROOT
REMARK  Name = stanozolol
REMARK                            x       y       z     vdW  Elec       q    Type
REMARK                         _______ _______ _______ _____ _____    ______ ____
ATOM      1  C   UNL     1      60.635  62.041  68.197  0.00  0.00    +0.000 C 
ATOM      2  C   UNL     1      60.527  62.528  68.854  0.00  0.00    +0.000 C 
ATOM      3  O   UNL     1      60.338  63.100  68.291  0.00  0.00    +0.000 OA
ATOM      4  C   UNL     1      60.739  61.852  69.279  0.00  0.00    +0.000 C 
ATOM      5  C   UNL     1      60.723  62.042  70.082  0.00  0.00    +0.000 C 
ATOM      6  C   UNL     1      60.501  62.833  70.153  0.00  0.00    +0.000 C 
ATOM      7  C   UNL     1      60.393  63.320  70.811  0.00  0.00    +0.000 C 
ATOM      8  C   UNL     1      60.514  63.020  71.570  0.00  0.00    +0.000 C 
ATOM      9  C   UNL     1      60.407  63.506  72.228  0.00  0.00    +0.000 C 
ATOM     10  C   UNL     1      60.178  64.293  72.126  0.00  0.00    +0.000 C 
ATOM     11  C   UNL     1      60.071  64.779  72.783  0.00  0.00    +0.000 C 
ATOM     12  C   UNL     1      59.843  65.565  72.683  0.00  0.00    +0.000 A 
ATOM     13  C   UNL     1      59.722  65.865  71.924  0.00  0.00    +0.000 A 
ATOM     14  C   UNL     1      59.830  65.379  71.266  0.00  0.00    +0.000 C 
ATOM     15  C   UNL     1      60.058  64.593  71.367  0.00  0.00    +0.000 C 
ATOM     16  C   UNL     1      59.937  64.892  70.608  0.00  0.00    +0.000 C 
ATOM     17  C   UNL     1      60.165  64.106  70.710  0.00  0.00    +0.000 C 
ATOM     18  C   UNL     1      60.045  64.406  69.950  0.00  0.00    +0.000 C 
ATOM     19  C   UNL     1      60.152  63.919  69.293  0.00  0.00    +0.000 C 
ATOM     20  C   UNL     1      60.380  63.133  69.394  0.00  0.00    +0.000 C 
ATOM     21  C   UNL     1      60.281  63.354  68.606  0.00  0.00    +0.000 C 
ATOM     22  C   UNL     1      59.500  66.657  71.995  0.00  0.00    +0.000 A 
ATOM     23  N   UNL     1      59.484  66.846  72.797  0.00  0.00    +0.000 NA
ATOM     24  N   UNL     1      59.696  66.171  73.222  0.00  0.00    +0.000 NA
ENDROOT
TORSDOF 0
ENDMDL
MODEL 9
REMARK VINA RESULT:   -10.987     24.513     25.570
REMARK INTER + INTRA:         -10.987
REMARK INTER:                 -10.987
REMARK INTRA:                   0.000
REMARK UNBOUND:                 0.000
ROOT
REMARK  Name = stanozolol
REMARK                            x       y       z     vdW  Elec       q    Type
REMARK                         _______ _______ _______ _____ _____    ______ ____
ATOM      1  C   UNL     1      72.689  78.873  48.098  0.00  0.00    +0.000 C 
ATOM      2  C   UNL     1      72.186  79.157  48.686  0.00  0.00    +0.000 C 
ATOM      3  O   UNL     1      71.599  78.783  48.244  0.00  0.00    +0.000 OA
ATOM      4  C   UNL     1      72.879  79.472  49.006  0.00  0.00    +0.000 C 
ATOM      5  C   UNL     1      72.681  79.872  49.699  0.00  0.00    +0.000 C 
ATOM      6  C   UNL     1      71.866  79.805  49.808  0.00  0.00    +0.000 C 
ATOM      7  C   UNL     1      71.362  80.089  50.397  0.00  0.00    +0.000 C 
ATOM      8  C   UNL     1      71.667  80.531  51.023  0.00  0.00    +0.000 C 
ATOM      9  C   UNL     1      71.165  80.816  51.612  0.00  0.00    +0.000 C 
ATOM     10  C   UNL     1      70.355  80.658  51.575  0.00  0.00    +0.000 C 
ATOM     11  C   UNL     1      69.852  80.942  52.162  0.00  0.00    +0.000 C 
ATOM     12  C   UNL     1      69.043  80.785  52.126  0.00  0.00    +0.000 A 
ATOM     13  C   UNL     1      68.738  80.343  51.500  0.00  0.00    +0.000 A 
ATOM     14  C   UNL     1      69.241  80.059  50.911  0.00  0.00    +0.000 C 
ATOM     15  C   UNL     1      70.050  80.216  50.948  0.00  0.00    +0.000 C 
ATOM     16  C   UNL     1      69.744  79.774  50.322  0.00  0.00    +0.000 C 
ATOM     17  C   UNL     1      70.553  79.932  50.360  0.00  0.00    +0.000 C 
ATOM     18  C   UNL     1      70.248  79.490  49.733  0.00  0.00    +0.000 C 
ATOM     19  C   UNL     1      70.752  79.206  49.145  0.00  0.00    +0.000 C 
ATOM     20  C   UNL     1      71.560  79.363  49.182  0.00  0.00    +0.000 C 
ATOM     21  C   UNL     1      71.336  78.916  48.527  0.00  0.00    +0.000 C 
ATOM     22  C   UNL     1      67.923  80.276  51.609  0.00  0.00    +0.000 A 
ATOM     23  N   UNL     1      67.724  80.676  52.302  0.00  0.00    +0.000 NA
ATOM     24  N   UNL     1      68.417  80.991  52.622  0.00  0.00    +0.000 NA
ENDROOT
TORSDOF 0
ENDMDL
