MODEL 1
REMARK VINA RESULT:    -8.422      0.000      0.000
REMARK INTER + INTRA:          -8.422
REMARK INTER:                  -8.422
REMARK INTRA:                   0.000
REMARK UNBOUND:                 0.000
ROOT
REMARK  Name = stavudine
REMARK                            x       y       z     vdW  Elec       q    Type
REMARK                         _______ _______ _______ _____ _____    ______ ____
ATOM      1  C   UNL     1      62.364  61.980  64.708  0.00  0.00    +0.000 C 
ATOM      2  C   UNL     1      61.673  61.984  65.158  0.00  0.00    +0.000 A 
ATOM      3  C   UNL     1      61.665  62.347  65.899  0.00  0.00    +0.000 A 
ATOM      4  N   UNL     1      60.974  62.352  66.350  0.00  0.00    +0.000 N 
ATOM      5  C   UNL     1      60.967  62.715  67.091  0.00  0.00    +0.000 C 
ATOM      6  O   UNL     1      61.604  63.094  67.451  0.00  0.00    +0.000 OA
ATOM      7  C   UNL     1      61.352  63.375  68.184  0.00  0.00    +0.000 C 
ATOM      8  C   UNL     1      61.813  63.790  68.729  0.00  0.00    +0.000 C 
ATOM      9  O   UNL     1      61.484  64.038  69.444  0.00  0.00    +0.000 OA
ATOM     10  C   UNL     1      60.558  63.171  68.276  0.00  0.00    +0.000 C 
ATOM     11  C   UNL     1      60.320  62.762  67.601  0.00  0.00    +0.000 C 
ATOM     12  C   UNL     1      60.290  61.992  66.059  0.00  0.00    +0.000 A 
ATOM     13  O   UNL     1      59.599  61.997  66.510  0.00  0.00    +0.000 OA
ATOM     14  N   UNL     1      60.297  61.629  65.318  0.00  0.00    +0.000 NA
ATOM     15  C   UNL     1      60.989  61.625  64.868  0.00  0.00    +0.000 A 
ATOM     16  O   UNL     1      60.997  61.262  64.128  0.00  0.00    +0.000 OA
ENDROOT
TORSDOF 0
ENDMDL
MODEL 2
REMARK VINA RESULT:    -8.237      0.956      3.369
REMARK INTER + INTRA:          -8.237
REMARK INTER:                  -8.237
REMARK INTRA:                   0.000
REMARK UNBOUND:                 0.000
ROOT
REMARK  Name = stavudine
REMARK                            x       y       z     vdW  Elec       q    Type
REMARK                         _______ _______ _______ _____ _____    ______ ____
ATOM      1  C   UNL     1      61.625  63.523  68.304  0.00  0.00    +0.000 C 
ATOM      2  C   UNL     1      61.093  63.121  67.818  0.00  0.00    +0.000 A 
ATOM      3  C   UNL     1      61.336  62.845  67.080  0.00  0.00    +0.000 A 
ATOM      4  N   UNL     1      60.805  62.443  66.594  0.00  0.00    +0.000 N 
ATOM      5  C   UNL     1      61.048  62.167  65.855  0.00  0.00    +0.000 C 
ATOM      6  O   UNL     1      61.801  62.253  65.529  0.00  0.00    +0.000 OA
ATOM      7  C   UNL     1      61.799  61.897  64.786  0.00  0.00    +0.000 C 
ATOM      8  C   UNL     1      62.439  61.854  64.267  0.00  0.00    +0.000 C 
ATOM      9  O   UNL     1      62.355  61.478  63.537  0.00  0.00    +0.000 OA
ATOM     10  C   UNL     1      61.044  61.591  64.652  0.00  0.00    +0.000 C 
ATOM     11  C   UNL     1      60.580  61.758  65.312  0.00  0.00    +0.000 C 
ATOM     12  C   UNL     1      60.030  62.315  66.847  0.00  0.00    +0.000 A 
ATOM     13  O   UNL     1      59.498  61.913  66.361  0.00  0.00    +0.000 OA
ATOM     14  N   UNL     1      59.786  62.591  67.586  0.00  0.00    +0.000 NA
ATOM     15  C   UNL     1      60.319  62.993  68.071  0.00  0.00    +0.000 A 
ATOM     16  O   UNL     1      60.076  63.269  68.810  0.00  0.00    +0.000 OA
ENDROOT
TORSDOF 0
ENDMDL
MODEL 3
REMARK VINA RESULT:    -7.437      2.684      4.857
REMARK INTER + INTRA:          -7.437
REMARK INTER:                  -7.437
REMARK INTRA:                   0.000
REMARK UNBOUND:                 0.000
ROOT
REMARK  Name = stavudine
REMARK                            x       y       z     vdW  Elec       q    Type
REMARK                         _______ _______ _______ _____ _____    ______ ____
ATOM      1  C   UNL     1      62.173  64.158  71.660  0.00  0.00    +0.000 C 
ATOM      2  C   UNL     1      61.705  63.520  71.427  0.00  0.00    +0.000 A 
ATOM      3  C   UNL     1      61.561  63.385  70.625  0.00  0.00    +0.000 A 
ATOM      4  N   UNL     1      61.094  62.747  70.391  0.00  0.00    +0.000 N 
ATOM      5  C   UNL     1      60.950  62.613  69.590  0.00  0.00    +0.000 C 
ATOM      6  O   UNL     1      61.234  63.068  68.963  0.00  0.00    +0.000 OA
ATOM      7  C   UNL     1      60.956  62.736  68.262  0.00  0.00    +0.000 C 
ATOM      8  C   UNL     1      61.107  63.015  67.500  0.00  0.00    +0.000 C 
ATOM      9  O   UNL     1      60.790  62.625  66.846  0.00  0.00    +0.000 OA
ATOM     10  C   UNL     1      60.499  62.076  68.454  0.00  0.00    +0.000 C 
ATOM     11  C   UNL     1      60.495  62.000  69.275  0.00  0.00    +0.000 C 
ATOM     12  C   UNL     1      60.771  62.243  70.959  0.00  0.00    +0.000 A 
ATOM     13  O   UNL     1      60.304  61.604  70.725  0.00  0.00    +0.000 OA
ATOM     14  N   UNL     1      60.915  62.377  71.760  0.00  0.00    +0.000 NA
ATOM     15  C   UNL     1      61.382  63.016  71.993  0.00  0.00    +0.000 A 
ATOM     16  O   UNL     1      61.527  63.150  72.795  0.00  0.00    +0.000 OA
ENDROOT
TORSDOF 0
ENDMDL
MODEL 4
REMARK VINA RESULT:    -7.392      2.690      3.932
REMARK INTER + INTRA:          -7.392
REMARK INTER:                  -7.392
REMARK INTRA:                   0.000
REMARK UNBOUND:                 0.000
ROOT
REMARK  Name = stavudine
REMARK                            x       y       z     vdW  Elec       q    Type
REMARK                         _______ _______ _______ _____ _____    ______ ____
ATOM      1  C   UNL     1      60.998  63.173  68.091  0.00  0.00    +0.000 C 
ATOM      2  C   UNL     1      60.825  62.783  68.798  0.00  0.00    +0.000 A 
ATOM      3  C   UNL     1      61.024  63.131  69.519  0.00  0.00    +0.000 A 
ATOM      4  N   UNL     1      60.852  62.743  70.226  0.00  0.00    +0.000 N 
ATOM      5  C   UNL     1      61.051  63.090  70.947  0.00  0.00    +0.000 C 
ATOM      6  O   UNL     1      61.421  63.820  71.048  0.00  0.00    +0.000 OA
ATOM      7  C   UNL     1      61.513  63.950  71.857  0.00  0.00    +0.000 C 
ATOM      8  C   UNL     1      61.859  64.613  72.206  0.00  0.00    +0.000 C 
ATOM      9  O   UNL     1      61.913  64.667  73.028  0.00  0.00    +0.000 OA
ATOM     10  C   UNL     1      61.200  63.300  72.257  0.00  0.00    +0.000 C 
ATOM     11  C   UNL     1      60.914  62.768  71.695  0.00  0.00    +0.000 C 
ATOM     12  C   UNL     1      60.481  62.005  70.211  0.00  0.00    +0.000 A 
ATOM     13  O   UNL     1      60.309  61.617  70.918  0.00  0.00    +0.000 OA
ATOM     14  N   UNL     1      60.282  61.658  69.490  0.00  0.00    +0.000 NA
ATOM     15  C   UNL     1      60.454  62.047  68.784  0.00  0.00    +0.000 A 
ATOM     16  O   UNL     1      60.255  61.700  68.062  0.00  0.00    +0.000 OA
ENDROOT
TORSDOF 0
ENDMDL
MODEL 5
REMARK VINA RESULT:    -7.248      5.460      6.871
REMARK INTER + INTRA:          -7.248
REMARK INTER:                  -7.248
REMARK INTRA:                   0.000
REMARK UNBOUND:                 0.000
ROOT
REMARK  Name = stavudine
REMARK                            x       y       z     vdW  Elec       q    Type
REMARK                         _______ _______ _______ _____ _____    ______ ____
ATOM      1  C   UNL     1      66.128  66.864  71.896  0.00  0.00    +0.000 C 
ATOM      2  C   UNL     1      65.658  66.745  71.228  0.00  0.00    +0.000 A 
ATOM      3  C   UNL     1      64.973  66.290  71.282  0.00  0.00    +0.000 A 
ATOM      4  N   UNL     1      64.502  66.170  70.616  0.00  0.00    +0.000 N 
ATOM      5  C   UNL     1      63.817  65.714  70.670  0.00  0.00    +0.000 C 
ATOM      6  O   UNL     1      63.532  65.345  71.350  0.00  0.00    +0.000 OA
ATOM      7  C   UNL     1      62.835  64.951  71.154  0.00  0.00    +0.000 C 
ATOM      8  C   UNL     1      62.367  64.508  71.670  0.00  0.00    +0.000 C 
ATOM      9  O   UNL     1      61.680  64.143  71.394  0.00  0.00    +0.000 OA
ATOM     10  C   UNL     1      62.688  65.076  70.352  0.00  0.00    +0.000 C 
ATOM     11  C   UNL     1      63.295  65.548  70.052  0.00  0.00    +0.000 C 
ATOM     12  C   UNL     1      64.718  66.507  69.893  0.00  0.00    +0.000 A 
ATOM     13  O   UNL     1      64.248  66.387  69.226  0.00  0.00    +0.000 OA
ATOM     14  N   UNL     1      65.404  66.962  69.839  0.00  0.00    +0.000 NA
ATOM     15  C   UNL     1      65.873  67.081  70.507  0.00  0.00    +0.000 A 
ATOM     16  O   UNL     1      66.559  67.537  70.452  0.00  0.00    +0.000 OA
ENDROOT
TORSDOF 0
ENDMDL
MODEL 6
REMARK VINA RESULT:    -7.201      3.925      4.841
REMARK INTER + INTRA:          -7.201
REMARK INTER:                  -7.201
REMARK INTRA:                   0.000
REMARK UNBOUND:                 0.000
ROOT
REMARK  Name = stavudine
REMARK                            x       y       z     vdW  Elec       q    Type
REMARK                         _______ _______ _______ _____ _____    ______ ____
ATOM      1  C   UNL     1      60.674  62.055  69.454  0.00  0.00    +0.000 C 
ATOM      2  C   UNL     1      60.468  62.544  70.086  0.00  0.00    +0.000 A 
ATOM      3  C   UNL     1      60.297  63.340  69.952  0.00  0.00    +0.000 A 
ATOM      4  N   UNL     1      60.091  63.830  70.582  0.00  0.00    +0.000 N 
ATOM      5  C   UNL     1      59.920  64.626  70.448  0.00  0.00    +0.000 C 
ATOM      6  O   UNL     1      59.933  65.008  69.718  0.00  0.00    +0.000 OA
ATOM      7  C   UNL     1      59.728  65.798  69.840  0.00  0.00    +0.000 C 
ATOM      8  C   UNL     1      59.672  66.380  69.257  0.00  0.00    +0.000 C 
ATOM      9  O   UNL     1      59.459  67.150  69.462  0.00  0.00    +0.000 OA
ATOM     10  C   UNL     1      59.588  65.903  70.646  0.00  0.00    +0.000 C 
ATOM     11  C   UNL     1      59.707  65.179  71.022  0.00  0.00    +0.000 C 
ATOM     12  C   UNL     1      60.055  63.523  71.348  0.00  0.00    +0.000 A 
ATOM     13  O   UNL     1      59.848  64.013  71.979  0.00  0.00    +0.000 OA
ATOM     14  N   UNL     1      60.225  62.727  71.482  0.00  0.00    +0.000 NA
ATOM     15  C   UNL     1      60.432  62.238  70.850  0.00  0.00    +0.000 A 
ATOM     16  O   UNL     1      60.602  61.442  70.984  0.00  0.00    +0.000 OA
ENDROOT
TORSDOF 0
ENDMDL
MODEL 7
REMARK VINA RESULT:    -6.938      4.896      5.995
REMARK INTER + INTRA:          -6.938
REMARK INTER:                  -6.938
REMARK INTRA:                   0.000
REMARK UNBOUND:                 0.000
ROOT
REMARK  Name = stavudine
REMARK                            x       y       z     vdW  Elec       q    Type
REMARK                         _______ _______ _______ _____ _____    ______ ____
ATOM      1  C   UNL     1      60.709  63.813  72.537  0.00  0.00    +0.000 C 
ATOM      2  C   UNL     1      61.305  63.838  71.967  0.00  0.00    +0.000 A 
ATOM      3  C   UNL     1      61.835  64.470  71.953  0.00  0.00    +0.000 A 
ATOM      4  N   UNL     1      62.431  64.496  71.383  0.00  0.00    +0.000 N 
ATOM      5  C   UNL     1      62.961  65.128  71.369  0.00  0.00    +0.000 C 
ATOM      6  O   UNL     1      62.964  65.770  71.887  0.00  0.00    +0.000 OA
ATOM      7  C   UNL     1      63.586  66.267  71.673  0.00  0.00    +0.000 C 
ATOM      8  C   UNL     1      63.791  66.976  72.043  0.00  0.00    +0.000 C 
ATOM      9  O   UNL     1      64.431  67.417  71.767  0.00  0.00    +0.000 OA
ATOM     10  C   UNL     1      63.968  65.932  71.022  0.00  0.00    +0.000 C 
ATOM     11  C   UNL     1      63.582  65.228  70.835  0.00  0.00    +0.000 C 
ATOM     12  C   UNL     1      62.496  63.890  70.827  0.00  0.00    +0.000 A 
ATOM     13  O   UNL     1      63.092  63.916  70.257  0.00  0.00    +0.000 OA
ATOM     14  N   UNL     1      61.966  63.258  70.841  0.00  0.00    +0.000 NA
ATOM     15  C   UNL     1      61.370  63.233  71.411  0.00  0.00    +0.000 A 
ATOM     16  O   UNL     1      60.840  62.601  71.425  0.00  0.00    +0.000 OA
ENDROOT
TORSDOF 0
ENDMDL
MODEL 8
REMARK VINA RESULT:    -6.900      3.294      5.244
REMARK INTER + INTRA:          -6.900
REMARK INTER:                  -6.900
REMARK INTRA:                   0.000
REMARK UNBOUND:                 0.000
ROOT
REMARK  Name = stavudine
REMARK                            x       y       z     vdW  Elec       q    Type
REMARK                         _______ _______ _______ _____ _____    ______ ____
ATOM      1  C   UNL     1      63.225  65.749  69.821  0.00  0.00    +0.000 C 
ATOM      2  C   UNL     1      62.894  65.211  70.352  0.00  0.00    +0.000 A 
ATOM      3  C   UNL     1      62.419  64.597  70.073  0.00  0.00    +0.000 A 
ATOM      4  N   UNL     1      62.087  64.058  70.603  0.00  0.00    +0.000 N 
ATOM      5  C   UNL     1      61.612  63.444  70.324  0.00  0.00    +0.000 C 
ATOM      6  O   UNL     1      61.419  63.299  69.536  0.00  0.00    +0.000 OA
ATOM      7  C   UNL     1      60.934  62.633  69.510  0.00  0.00    +0.000 C 
ATOM      8  C   UNL     1      60.613  62.293  68.830  0.00  0.00    +0.000 C 
ATOM      9  O   UNL     1      60.134  61.624  68.889  0.00  0.00    +0.000 OA
ATOM     10  C   UNL     1      60.826  62.366  70.283  0.00  0.00    +0.000 C 
ATOM     11  C   UNL     1      61.245  62.867  70.787  0.00  0.00    +0.000 C 
ATOM     12  C   UNL     1      62.232  64.134  71.412  0.00  0.00    +0.000 A 
ATOM     13  O   UNL     1      61.900  63.596  71.942  0.00  0.00    +0.000 OA
ATOM     14  N   UNL     1      62.707  64.748  71.691  0.00  0.00    +0.000 NA
ATOM     15  C   UNL     1      63.038  65.286  71.160  0.00  0.00    +0.000 A 
ATOM     16  O   UNL     1      63.514  65.900  71.439  0.00  0.00    +0.000 OA
ENDROOT
TORSDOF 0
ENDMDL
MODEL 9
REMARK VINA RESULT:    -6.893      4.545      6.346
REMARK INTER + INTRA:          -6.893
REMARK INTER:                  -6.893
REMARK INTRA:                   0.000
REMARK UNBOUND:                 0.000
ROOT
REMARK  Name = stavudine
REMARK                            x       y       z     vdW  Elec       q    Type
REMARK                         _______ _______ _______ _____ _____    ______ ____
ATOM      1  C   UNL     1      62.777  64.254  69.287  0.00  0.00    +0.000 C 
ATOM      2  C   UNL     1      62.959  64.673  69.974  0.00  0.00    +0.000 A 
ATOM      3  C   UNL     1      63.566  65.231  69.968  0.00  0.00    +0.000 A 
ATOM      4  N   UNL     1      63.749  65.650  70.655  0.00  0.00    +0.000 N 
ATOM      5  C   UNL     1      64.357  66.208  70.649  0.00  0.00    +0.000 C 
ATOM      6  O   UNL     1      64.828  66.405  70.001  0.00  0.00    +0.000 OA
ATOM      7  C   UNL     1      65.362  66.985  70.242  0.00  0.00    +0.000 C 
ATOM      8  C   UNL     1      65.937  67.342  69.769  0.00  0.00    +0.000 C 
ATOM      9  O   UNL     1      66.435  67.917  70.086  0.00  0.00    +0.000 OA
ATOM     10  C   UNL     1      65.221  67.147  71.038  0.00  0.00    +0.000 C 
ATOM     11  C   UNL     1      64.600  66.667  71.290  0.00  0.00    +0.000 C 
ATOM     12  C   UNL     1      63.323  65.512  71.348  0.00  0.00    +0.000 A 
ATOM     13  O   UNL     1      63.505  65.931  72.035  0.00  0.00    +0.000 OA
ATOM     14  N   UNL     1      62.715  64.954  71.354  0.00  0.00    +0.000 NA
ATOM     15  C   UNL     1      62.533  64.535  70.667  0.00  0.00    +0.000 A 
ATOM     16  O   UNL     1      61.925  63.977  70.673  0.00  0.00    +0.000 OA
ENDROOT
TORSDOF 0
ENDMDL
