MODEL 1
REMARK VINA RESULT:    -8.503      0.000      0.000
REMARK INTER + INTRA:          -8.503
REMARK INTER:                  -8.503
REMARK INTRA:                   0.000
REMARK UNBOUND:                 0.000
ROOT
REMARK  Name = streptozocin
REMARK                            x       y       z     vdW  Elec       q    Type
REMARK                         _______ _______ _______ _____ _____    ______ ____
ATOM      1  C   UNL     1      60.905  61.338  64.195  0.00  0.00    +0.000 C 
ATOM      2  N   UNL     1      61.562  61.706  64.531  0.00  0.00    +0.000 N 
ATOM      3  N   UNL     1      62.278  61.726  64.122  0.00  0.00    +0.000 NA
ATOM      4  O   UNL     1      62.337  61.376  63.376  0.00  0.00    +0.000 OA
ATOM      5  C   UNL     1      61.504  62.056  65.275  0.00  0.00    +0.000 C 
ATOM      6  O   UNL     1      62.160  62.424  65.611  0.00  0.00    +0.000 OA
ATOM      7  N   UNL     1      60.787  62.036  65.685  0.00  0.00    +0.000 NA
ATOM      8  C   UNL     1      60.729  62.386  66.430  0.00  0.00    +0.000 C 
ATOM      9  C   UNL     1      60.012  62.367  66.839  0.00  0.00    +0.000 C 
ATOM     10  O   UNL     1      59.355  61.998  66.504  0.00  0.00    +0.000 OA
ATOM     11  O   UNL     1      59.954  62.716  67.584  0.00  0.00    +0.000 OA
ATOM     12  C   UNL     1      60.610  63.084  67.920  0.00  0.00    +0.000 C 
ATOM     13  C   UNL     1      60.552  63.434  68.665  0.00  0.00    +0.000 C 
ATOM     14  O   UNL     1      59.836  63.415  69.074  0.00  0.00    +0.000 OA
ATOM     15  C   UNL     1      61.327  63.104  67.511  0.00  0.00    +0.000 C 
ATOM     16  O   UNL     1      61.984  63.472  67.847  0.00  0.00    +0.000 OA
ATOM     17  C   UNL     1      61.385  62.754  66.765  0.00  0.00    +0.000 C 
ATOM     18  O   UNL     1      62.102  62.774  66.356  0.00  0.00    +0.000 OA
ENDROOT
TORSDOF 0
ENDMDL
MODEL 2
REMARK VINA RESULT:    -8.413      1.432      3.505
REMARK INTER + INTRA:          -8.413
REMARK INTER:                  -8.413
REMARK INTRA:                   0.000
REMARK UNBOUND:                 0.000
ROOT
REMARK  Name = streptozocin
REMARK                            x       y       z     vdW  Elec       q    Type
REMARK                         _______ _______ _______ _____ _____    ______ ____
ATOM      1  C   UNL     1      60.119  63.506  68.605  0.00  0.00    +0.000 C 
ATOM      2  N   UNL     1      60.901  63.512  68.344  0.00  0.00    +0.000 N 
ATOM      3  N   UNL     1      61.486  63.874  68.799  0.00  0.00    +0.000 NA
ATOM      4  O   UNL     1      61.287  64.231  69.517  0.00  0.00    +0.000 OA
ATOM      5  C   UNL     1      61.100  63.155  67.627  0.00  0.00    +0.000 C 
ATOM      6  O   UNL     1      61.882  63.161  67.367  0.00  0.00    +0.000 OA
ATOM      7  N   UNL     1      60.515  62.793  67.171  0.00  0.00    +0.000 NA
ATOM      8  C   UNL     1      60.714  62.436  66.454  0.00  0.00    +0.000 C 
ATOM      9  C   UNL     1      60.129  62.074  65.998  0.00  0.00    +0.000 C 
ATOM     10  O   UNL     1      59.347  62.068  66.259  0.00  0.00    +0.000 OA
ATOM     11  O   UNL     1      60.328  61.717  65.281  0.00  0.00    +0.000 OA
ATOM     12  C   UNL     1      61.110  61.723  65.020  0.00  0.00    +0.000 C 
ATOM     13  C   UNL     1      61.308  61.366  64.303  0.00  0.00    +0.000 C 
ATOM     14  O   UNL     1      60.724  61.004  63.847  0.00  0.00    +0.000 OA
ATOM     15  C   UNL     1      61.694  62.085  65.476  0.00  0.00    +0.000 C 
ATOM     16  O   UNL     1      62.477  62.091  65.215  0.00  0.00    +0.000 OA
ATOM     17  C   UNL     1      61.496  62.442  66.193  0.00  0.00    +0.000 C 
ATOM     18  O   UNL     1      62.080  62.804  66.649  0.00  0.00    +0.000 OA
ENDROOT
TORSDOF 0
ENDMDL
MODEL 3
REMARK VINA RESULT:    -7.698      1.902      3.190
REMARK INTER + INTRA:          -7.698
REMARK INTER:                  -7.698
REMARK INTRA:                   0.000
REMARK UNBOUND:                 0.000
ROOT
REMARK  Name = streptozocin
REMARK                            x       y       z     vdW  Elec       q    Type
REMARK                         _______ _______ _______ _____ _____    ______ ____
ATOM      1  C   UNL     1      61.084  63.092  66.641  0.00  0.00    +0.000 C 
ATOM      2  N   UNL     1      60.635  62.497  66.995  0.00  0.00    +0.000 N 
ATOM      3  N   UNL     1      60.183  61.988  66.529  0.00  0.00    +0.000 NA
ATOM      4  O   UNL     1      60.180  62.075  65.707  0.00  0.00    +0.000 OA
ATOM      5  C   UNL     1      60.638  62.410  67.815  0.00  0.00    +0.000 C 
ATOM      6  O   UNL     1      60.190  61.815  68.168  0.00  0.00    +0.000 OA
ATOM      7  N   UNL     1      61.090  62.918  68.282  0.00  0.00    +0.000 NA
ATOM      8  C   UNL     1      61.093  62.831  69.102  0.00  0.00    +0.000 C 
ATOM      9  C   UNL     1      61.545  63.340  69.569  0.00  0.00    +0.000 C 
ATOM     10  O   UNL     1      61.994  63.935  69.216  0.00  0.00    +0.000 OA
ATOM     11  O   UNL     1      61.548  63.253  70.389  0.00  0.00    +0.000 OA
ATOM     12  C   UNL     1      61.100  62.658  70.743  0.00  0.00    +0.000 C 
ATOM     13  C   UNL     1      61.103  62.571  71.564  0.00  0.00    +0.000 C 
ATOM     14  O   UNL     1      61.555  63.080  72.030  0.00  0.00    +0.000 OA
ATOM     15  C   UNL     1      60.648  62.150  70.276  0.00  0.00    +0.000 C 
ATOM     16  O   UNL     1      60.199  61.554  70.630  0.00  0.00    +0.000 OA
ATOM     17  C   UNL     1      60.645  62.237  69.455  0.00  0.00    +0.000 C 
ATOM     18  O   UNL     1      60.193  61.728  68.989  0.00  0.00    +0.000 OA
ENDROOT
TORSDOF 0
ENDMDL
MODEL 4
REMARK VINA RESULT:    -7.670      2.639      4.223
REMARK INTER + INTRA:          -7.670
REMARK INTER:                  -7.670
REMARK INTRA:                   0.000
REMARK UNBOUND:                 0.000
ROOT
REMARK  Name = streptozocin
REMARK                            x       y       z     vdW  Elec       q    Type
REMARK                         _______ _______ _______ _____ _____    ______ ____
ATOM      1  C   UNL     1      62.047  63.460  71.200  0.00  0.00    +0.000 C 
ATOM      2  N   UNL     1      62.297  63.848  70.516  0.00  0.00    +0.000 N 
ATOM      3  N   UNL     1      62.888  64.421  70.559  0.00  0.00    +0.000 NA
ATOM      4  O   UNL     1      63.231  64.606  71.287  0.00  0.00    +0.000 OA
ATOM      5  C   UNL     1      61.955  63.663  69.788  0.00  0.00    +0.000 C 
ATOM      6  O   UNL     1      62.205  64.050  69.105  0.00  0.00    +0.000 OA
ATOM      7  N   UNL     1      61.363  63.090  69.744  0.00  0.00    +0.000 NA
ATOM      8  C   UNL     1      61.021  62.905  69.017  0.00  0.00    +0.000 C 
ATOM      9  C   UNL     1      60.429  62.331  68.973  0.00  0.00    +0.000 C 
ATOM     10  O   UNL     1      60.179  61.943  69.657  0.00  0.00    +0.000 OA
ATOM     11  O   UNL     1      60.087  62.146  68.246  0.00  0.00    +0.000 OA
ATOM     12  C   UNL     1      60.337  62.534  67.562  0.00  0.00    +0.000 C 
ATOM     13  C   UNL     1      59.995  62.348  66.834  0.00  0.00    +0.000 C 
ATOM     14  O   UNL     1      59.403  61.775  66.791  0.00  0.00    +0.000 OA
ATOM     15  C   UNL     1      60.928  63.107  67.605  0.00  0.00    +0.000 C 
ATOM     16  O   UNL     1      61.178  63.494  66.921  0.00  0.00    +0.000 OA
ATOM     17  C   UNL     1      61.271  63.292  68.334  0.00  0.00    +0.000 C 
ATOM     18  O   UNL     1      61.862  63.865  68.377  0.00  0.00    +0.000 OA
ENDROOT
TORSDOF 0
ENDMDL
MODEL 5
REMARK VINA RESULT:    -7.496      5.440      7.015
REMARK INTER + INTRA:          -7.496
REMARK INTER:                  -7.496
REMARK INTRA:                   0.000
REMARK UNBOUND:                 0.000
ROOT
REMARK  Name = streptozocin
REMARK                            x       y       z     vdW  Elec       q    Type
REMARK                         _______ _______ _______ _____ _____    ______ ____
ATOM      1  C   UNL     1      62.641  63.975  70.480  0.00  0.00    +0.000 C 
ATOM      2  N   UNL     1      62.749  64.457  71.141  0.00  0.00    +0.000 N 
ATOM      3  N   UNL     1      62.292  64.339  71.817  0.00  0.00    +0.000 NA
ATOM      4  O   UNL     1      61.726  63.738  71.832  0.00  0.00    +0.000 OA
ATOM      5  C   UNL     1      63.315  65.057  71.126  0.00  0.00    +0.000 C 
ATOM      6  O   UNL     1      63.423  65.538  71.787  0.00  0.00    +0.000 OA
ATOM      7  N   UNL     1      63.773  65.176  70.450  0.00  0.00    +0.000 NA
ATOM      8  C   UNL     1      64.339  65.776  70.435  0.00  0.00    +0.000 C 
ATOM      9  C   UNL     1      64.796  65.894  69.758  0.00  0.00    +0.000 C 
ATOM     10  O   UNL     1      64.688  65.413  69.097  0.00  0.00    +0.000 OA
ATOM     11  O   UNL     1      65.362  66.494  69.744  0.00  0.00    +0.000 OA
ATOM     12  C   UNL     1      65.470  66.975  70.404  0.00  0.00    +0.000 C 
ATOM     13  C   UNL     1      66.037  67.576  70.389  0.00  0.00    +0.000 C 
ATOM     14  O   UNL     1      66.494  67.694  69.713  0.00  0.00    +0.000 OA
ATOM     15  C   UNL     1      65.013  66.857  71.080  0.00  0.00    +0.000 C 
ATOM     16  O   UNL     1      65.122  67.339  71.741  0.00  0.00    +0.000 OA
ATOM     17  C   UNL     1      64.447  66.257  71.095  0.00  0.00    +0.000 C 
ATOM     18  O   UNL     1      63.990  66.139  71.772  0.00  0.00    +0.000 OA
ENDROOT
TORSDOF 0
ENDMDL
MODEL 6
REMARK VINA RESULT:    -7.410      4.414      6.001
REMARK INTER + INTRA:          -7.410
REMARK INTER:                  -7.410
REMARK INTRA:                   0.000
REMARK UNBOUND:                 0.000
ROOT
REMARK  Name = streptozocin
REMARK                            x       y       z     vdW  Elec       q    Type
REMARK                         _______ _______ _______ _____ _____    ______ ____
ATOM      1  C   UNL     1      59.378  66.967  70.283  0.00  0.00    +0.000 C 
ATOM      2  N   UNL     1      59.380  66.554  70.996  0.00  0.00    +0.000 N 
ATOM      3  N   UNL     1      59.188  66.941  71.699  0.00  0.00    +0.000 NA
ATOM      4  O   UNL     1      58.994  67.743  71.687  0.00  0.00    +0.000 OA
ATOM      5  C   UNL     1      59.574  65.752  71.009  0.00  0.00    +0.000 C 
ATOM      6  O   UNL     1      59.576  65.339  71.721  0.00  0.00    +0.000 OA
ATOM      7  N   UNL     1      59.766  65.364  70.306  0.00  0.00    +0.000 NA
ATOM      8  C   UNL     1      59.960  64.562  70.318  0.00  0.00    +0.000 C 
ATOM      9  C   UNL     1      60.153  64.174  69.615  0.00  0.00    +0.000 C 
ATOM     10  O   UNL     1      60.150  64.588  68.901  0.00  0.00    +0.000 OA
ATOM     11  O   UNL     1      60.347  63.373  69.627  0.00  0.00    +0.000 OA
ATOM     12  C   UNL     1      60.349  62.959  70.340  0.00  0.00    +0.000 C 
ATOM     13  C   UNL     1      60.543  62.157  70.351  0.00  0.00    +0.000 C 
ATOM     14  O   UNL     1      60.735  61.770  69.649  0.00  0.00    +0.000 OA
ATOM     15  C   UNL     1      60.157  63.347  71.042  0.00  0.00    +0.000 C 
ATOM     16  O   UNL     1      60.159  62.933  71.756  0.00  0.00    +0.000 OA
ATOM     17  C   UNL     1      59.962  64.149  71.030  0.00  0.00    +0.000 C 
ATOM     18  O   UNL     1      59.770  64.536  71.733  0.00  0.00    +0.000 OA
ENDROOT
TORSDOF 0
ENDMDL
MODEL 7
REMARK VINA RESULT:    -7.341      5.125      6.496
REMARK INTER + INTRA:          -7.341
REMARK INTER:                  -7.341
REMARK INTRA:                   0.000
REMARK UNBOUND:                 0.000
ROOT
REMARK  Name = streptozocin
REMARK                            x       y       z     vdW  Elec       q    Type
REMARK                         _______ _______ _______ _____ _____    ______ ____
ATOM      1  C   UNL     1      65.408  67.434  71.149  0.00  0.00    +0.000 C 
ATOM      2  N   UNL     1      65.386  67.039  70.425  0.00  0.00    +0.000 N 
ATOM      3  N   UNL     1      65.917  67.243  69.827  0.00  0.00    +0.000 NA
ATOM      4  O   UNL     1      66.469  67.843  69.954  0.00  0.00    +0.000 OA
ATOM      5  C   UNL     1      64.834  66.439  70.299  0.00  0.00    +0.000 C 
ATOM      6  O   UNL     1      64.813  66.044  69.576  0.00  0.00    +0.000 OA
ATOM      7  N   UNL     1      64.303  66.235  70.897  0.00  0.00    +0.000 NA
ATOM      8  C   UNL     1      63.751  65.635  70.770  0.00  0.00    +0.000 C 
ATOM      9  C   UNL     1      63.220  65.430  71.368  0.00  0.00    +0.000 C 
ATOM     10  O   UNL     1      63.242  65.826  72.092  0.00  0.00    +0.000 OA
ATOM     11  O   UNL     1      62.668  64.831  71.242  0.00  0.00    +0.000 OA
ATOM     12  C   UNL     1      62.647  64.436  70.519  0.00  0.00    +0.000 C 
ATOM     13  C   UNL     1      62.094  63.836  70.392  0.00  0.00    +0.000 C 
ATOM     14  O   UNL     1      61.564  63.632  70.990  0.00  0.00    +0.000 OA
ATOM     15  C   UNL     1      63.177  64.640  69.921  0.00  0.00    +0.000 C 
ATOM     16  O   UNL     1      63.155  64.245  69.197  0.00  0.00    +0.000 OA
ATOM     17  C   UNL     1      63.730  65.240  70.047  0.00  0.00    +0.000 C 
ATOM     18  O   UNL     1      64.260  65.444  69.449  0.00  0.00    +0.000 OA
ENDROOT
TORSDOF 0
ENDMDL
MODEL 8
REMARK VINA RESULT:    -7.175      2.457      4.053
REMARK INTER + INTRA:          -7.175
REMARK INTER:                  -7.175
REMARK INTRA:                   0.000
REMARK UNBOUND:                 0.000
ROOT
REMARK  Name = streptozocin
REMARK                            x       y       z     vdW  Elec       q    Type
REMARK                         _______ _______ _______ _____ _____    ______ ____
ATOM      1  C   UNL     1      60.719  63.425  67.482  0.00  0.00    +0.000 C 
ATOM      2  N   UNL     1      60.771  62.951  68.155  0.00  0.00    +0.000 N 
ATOM      3  N   UNL     1      61.040  62.174  68.093  0.00  0.00    +0.000 NA
ATOM      4  O   UNL     1      61.258  61.871  67.356  0.00  0.00    +0.000 OA
ATOM      5  C   UNL     1      60.554  63.253  68.891  0.00  0.00    +0.000 C 
ATOM      6  O   UNL     1      60.606  62.780  69.564  0.00  0.00    +0.000 OA
ATOM      7  N   UNL     1      60.284  64.031  68.954  0.00  0.00    +0.000 NA
ATOM      8  C   UNL     1      60.067  64.334  69.690  0.00  0.00    +0.000 C 
ATOM      9  C   UNL     1      59.798  65.112  69.753  0.00  0.00    +0.000 C 
ATOM     10  O   UNL     1      59.746  65.586  69.080  0.00  0.00    +0.000 OA
ATOM     11  O   UNL     1      59.580  65.414  70.489  0.00  0.00    +0.000 OA
ATOM     12  C   UNL     1      59.632  64.940  71.161  0.00  0.00    +0.000 C 
ATOM     13  C   UNL     1      59.415  65.243  71.898  0.00  0.00    +0.000 C 
ATOM     14  O   UNL     1      59.146  66.020  71.960  0.00  0.00    +0.000 OA
ATOM     15  C   UNL     1      59.902  64.163  71.099  0.00  0.00    +0.000 C 
ATOM     16  O   UNL     1      59.954  63.689  71.772  0.00  0.00    +0.000 OA
ATOM     17  C   UNL     1      60.119  63.860  70.363  0.00  0.00    +0.000 C 
ATOM     18  O   UNL     1      60.388  63.083  70.300  0.00  0.00    +0.000 OA
ENDROOT
TORSDOF 0
ENDMDL
MODEL 9
REMARK VINA RESULT:    -7.143      3.965      5.039
REMARK INTER + INTRA:          -7.143
REMARK INTER:                  -7.143
REMARK INTRA:                   0.000
REMARK UNBOUND:                 0.000
ROOT
REMARK  Name = streptozocin
REMARK                            x       y       z     vdW  Elec       q    Type
REMARK                         _______ _______ _______ _____ _____    ______ ____
ATOM      1  C   UNL     1      63.845  65.568  70.909  0.00  0.00    +0.000 C 
ATOM      2  N   UNL     1      63.635  65.380  70.134  0.00  0.00    +0.000 N 
ATOM      3  N   UNL     1      63.983  65.780  69.502  0.00  0.00    +0.000 NA
ATOM      4  O   UNL     1      64.542  66.371  69.647  0.00  0.00    +0.000 OA
ATOM      5  C   UNL     1      63.076  64.790  69.989  0.00  0.00    +0.000 C 
ATOM      6  O   UNL     1      62.866  64.602  69.214  0.00  0.00    +0.000 OA
ATOM      7  N   UNL     1      62.727  64.389  70.620  0.00  0.00    +0.000 NA
ATOM      8  C   UNL     1      62.169  63.799  70.475  0.00  0.00    +0.000 C 
ATOM      9  C   UNL     1      61.820  63.398  71.107  0.00  0.00    +0.000 C 
ATOM     10  O   UNL     1      62.030  63.586  71.882  0.00  0.00    +0.000 OA
ATOM     11  O   UNL     1      61.262  62.808  70.962  0.00  0.00    +0.000 OA
ATOM     12  C   UNL     1      61.052  62.620  70.187  0.00  0.00    +0.000 C 
ATOM     13  C   UNL     1      60.493  62.030  70.043  0.00  0.00    +0.000 C 
ATOM     14  O   UNL     1      60.144  61.629  70.674  0.00  0.00    +0.000 OA
ATOM     15  C   UNL     1      61.400  63.021  69.556  0.00  0.00    +0.000 C 
ATOM     16  O   UNL     1      61.190  62.833  68.781  0.00  0.00    +0.000 OA
ATOM     17  C   UNL     1      61.959  63.611  69.701  0.00  0.00    +0.000 C 
ATOM     18  O   UNL     1      62.307  64.012  69.070  0.00  0.00    +0.000 OA
ENDROOT
TORSDOF 0
ENDMDL
