MODEL 1
REMARK VINA RESULT:    -6.702      0.000      0.000
REMARK INTER + INTRA:          -6.702
REMARK INTER:                  -6.702
REMARK INTRA:                   0.000
REMARK UNBOUND:                 0.000
ROOT
REMARK  Name = sulfanilamide
REMARK                            x       y       z     vdW  Elec       q    Type
REMARK                         _______ _______ _______ _____ _____    ______ ____
ATOM      1  N   UNL     1      62.401  61.568  63.512  0.00  0.00    +0.000 NA
ATOM      2  C   UNL     1      62.047  61.759  64.231  0.00  0.00    +0.000 A 
ATOM      3  C   UNL     1      62.442  62.242  64.771  0.00  0.00    +0.000 A 
ATOM      4  C   UNL     1      62.087  62.432  65.491  0.00  0.00    +0.000 A 
ATOM      5  C   UNL     1      61.338  62.140  65.671  0.00  0.00    +0.000 A 
ATOM      6  C   UNL     1      60.942  61.657  65.132  0.00  0.00    +0.000 A 
ATOM      7  C   UNL     1      61.296  61.467  64.412  0.00  0.00    +0.000 A 
ATOM      8  S   UNL     1      60.983  62.331  66.392  0.00  0.00    +0.000 S 
ATOM      9  N   UNL     1      60.628  62.522  67.111  0.00  0.00    +0.000 NA
ATOM     10  O   UNL     1      60.321  61.883  66.184  0.00  0.00    +0.000 OA
ATOM     11  O   UNL     1      61.644  62.779  66.599  0.00  0.00    +0.000 OA
ENDROOT
TORSDOF 0
ENDMDL
MODEL 2
REMARK VINA RESULT:    -6.444      1.392      2.669
REMARK INTER + INTRA:          -6.444
REMARK INTER:                  -6.444
REMARK INTRA:                   0.000
REMARK UNBOUND:                 0.000
ROOT
REMARK  Name = sulfanilamide
REMARK                            x       y       z     vdW  Elec       q    Type
REMARK                         _______ _______ _______ _____ _____    ______ ____
ATOM      1  N   UNL     1      60.488  62.436  67.026  0.00  0.00    +0.000 NA
ATOM      2  C   UNL     1      60.882  62.278  66.321  0.00  0.00    +0.000 A 
ATOM      3  C   UNL     1      60.530  61.799  65.749  0.00  0.00    +0.000 A 
ATOM      4  C   UNL     1      60.926  61.640  65.043  0.00  0.00    +0.000 A 
ATOM      5  C   UNL     1      61.673  61.961  64.908  0.00  0.00    +0.000 A 
ATOM      6  C   UNL     1      62.026  62.440  65.479  0.00  0.00    +0.000 A 
ATOM      7  C   UNL     1      61.631  62.599  66.185  0.00  0.00    +0.000 A 
ATOM      8  S   UNL     1      62.069  61.802  64.200  0.00  0.00    +0.000 S 
ATOM      9  N   UNL     1      62.464  61.644  63.495  0.00  0.00    +0.000 NA
ATOM     10  O   UNL     1      62.705  62.265  64.453  0.00  0.00    +0.000 OA
ATOM     11  O   UNL     1      61.434  61.340  63.948  0.00  0.00    +0.000 OA
ENDROOT
TORSDOF 0
ENDMDL
MODEL 3
REMARK VINA RESULT:    -5.605      7.369      7.970
REMARK INTER + INTRA:          -5.605
REMARK INTER:                  -5.605
REMARK INTRA:                   0.000
REMARK UNBOUND:                 0.000
ROOT
REMARK  Name = sulfanilamide
REMARK                            x       y       z     vdW  Elec       q    Type
REMARK                         _______ _______ _______ _____ _____    ______ ____
ATOM      1  N   UNL     1      66.490  67.651  69.849  0.00  0.00    +0.000 NA
ATOM      2  C   UNL     1      65.844  67.304  70.225  0.00  0.00    +0.000 A 
ATOM      3  C   UNL     1      65.714  67.435  71.029  0.00  0.00    +0.000 A 
ATOM      4  C   UNL     1      65.067  67.088  71.405  0.00  0.00    +0.000 A 
ATOM      5  C   UNL     1      64.549  66.610  70.977  0.00  0.00    +0.000 A 
ATOM      6  C   UNL     1      64.678  66.479  70.172  0.00  0.00    +0.000 A 
ATOM      7  C   UNL     1      65.325  66.826  69.796  0.00  0.00    +0.000 A 
ATOM      8  S   UNL     1      63.901  66.263  71.353  0.00  0.00    +0.000 S 
ATOM      9  N   UNL     1      63.255  65.916  71.729  0.00  0.00    +0.000 NA
ATOM     10  O   UNL     1      63.676  65.911  70.640  0.00  0.00    +0.000 OA
ATOM     11  O   UNL     1      64.126  66.614  72.065  0.00  0.00    +0.000 OA
ENDROOT
TORSDOF 0
ENDMDL
MODEL 4
REMARK VINA RESULT:    -5.530      6.399      6.877
REMARK INTER + INTRA:          -5.530
REMARK INTER:                  -5.530
REMARK INTRA:                   0.000
REMARK UNBOUND:                 0.000
ROOT
REMARK  Name = sulfanilamide
REMARK                            x       y       z     vdW  Elec       q    Type
REMARK                         _______ _______ _______ _____ _____    ______ ____
ATOM      1  N   UNL     1      61.636  61.541  71.500  0.00  0.00    +0.000 NA
ATOM      2  C   UNL     1      61.256  62.247  71.694  0.00  0.00    +0.000 A 
ATOM      3  C   UNL     1      61.575  62.743  72.271  0.00  0.00    +0.000 A 
ATOM      4  C   UNL     1      61.195  63.449  72.464  0.00  0.00    +0.000 A 
ATOM      5  C   UNL     1      60.497  63.660  72.081  0.00  0.00    +0.000 A 
ATOM      6  C   UNL     1      60.177  63.165  71.503  0.00  0.00    +0.000 A 
ATOM      7  C   UNL     1      60.556  62.458  71.310  0.00  0.00    +0.000 A 
ATOM      8  S   UNL     1      60.116  64.367  72.274  0.00  0.00    +0.000 S 
ATOM      9  N   UNL     1      59.737  65.072  72.468  0.00  0.00    +0.000 NA
ATOM     10  O   UNL     1      59.528  64.203  71.719  0.00  0.00    +0.000 OA
ATOM     11  O   UNL     1      60.704  64.531  72.829  0.00  0.00    +0.000 OA
ENDROOT
TORSDOF 0
ENDMDL
MODEL 5
REMARK VINA RESULT:    -5.510      6.551      7.389
REMARK INTER + INTRA:          -5.510
REMARK INTER:                  -5.510
REMARK INTRA:                   0.000
REMARK UNBOUND:                 0.000
ROOT
REMARK  Name = sulfanilamide
REMARK                            x       y       z     vdW  Elec       q    Type
REMARK                         _______ _______ _______ _____ _____    ______ ____
ATOM      1  N   UNL     1      66.134  67.628  70.764  0.00  0.00    +0.000 NA
ATOM      2  C   UNL     1      65.640  66.987  70.610  0.00  0.00    +0.000 A 
ATOM      3  C   UNL     1      65.391  66.833  69.839  0.00  0.00    +0.000 A 
ATOM      4  C   UNL     1      64.897  66.190  69.685  0.00  0.00    +0.000 A 
ATOM      5  C   UNL     1      64.651  65.703  70.303  0.00  0.00    +0.000 A 
ATOM      6  C   UNL     1      64.899  65.856  71.075  0.00  0.00    +0.000 A 
ATOM      7  C   UNL     1      65.394  66.498  71.228  0.00  0.00    +0.000 A 
ATOM      8  S   UNL     1      64.155  65.060  70.149  0.00  0.00    +0.000 S 
ATOM      9  N   UNL     1      63.661  64.418  69.996  0.00  0.00    +0.000 NA
ATOM     10  O   UNL     1      64.157  64.867  70.952  0.00  0.00    +0.000 OA
ATOM     11  O   UNL     1      64.154  65.253  69.347  0.00  0.00    +0.000 OA
ENDROOT
TORSDOF 0
ENDMDL
MODEL 6
REMARK VINA RESULT:    -5.508     24.686     25.277
REMARK INTER + INTRA:          -5.508
REMARK INTER:                  -5.508
REMARK INTRA:                   0.000
REMARK UNBOUND:                 0.000
ROOT
REMARK  Name = sulfanilamide
REMARK                            x       y       z     vdW  Elec       q    Type
REMARK                         _______ _______ _______ _____ _____    ______ ____
ATOM      1  N   UNL     1      72.573  78.887  48.110  0.00  0.00    +0.000 NA
ATOM      2  C   UNL     1      71.947  79.017  48.630  0.00  0.00    +0.000 A 
ATOM      3  C   UNL     1      71.328  78.473  48.676  0.00  0.00    +0.000 A 
ATOM      4  C   UNL     1      70.701  78.603  49.196  0.00  0.00    +0.000 A 
ATOM      5  C   UNL     1      70.693  79.277  49.671  0.00  0.00    +0.000 A 
ATOM      6  C   UNL     1      71.311  79.822  49.626  0.00  0.00    +0.000 A 
ATOM      7  C   UNL     1      71.938  79.692  49.105  0.00  0.00    +0.000 A 
ATOM      8  S   UNL     1      70.065  79.407  50.191  0.00  0.00    +0.000 S 
ATOM      9  N   UNL     1      69.439  79.537  50.711  0.00  0.00    +0.000 NA
ATOM     10  O   UNL     1      70.417  80.112  50.440  0.00  0.00    +0.000 OA
ATOM     11  O   UNL     1      69.713  78.703  49.943  0.00  0.00    +0.000 OA
ENDROOT
TORSDOF 0
ENDMDL
MODEL 7
REMARK VINA RESULT:    -5.464      7.126      7.909
REMARK INTER + INTRA:          -5.464
REMARK INTER:                  -5.464
REMARK INTRA:                   0.000
REMARK UNBOUND:                 0.000
ROOT
REMARK  Name = sulfanilamide
REMARK                            x       y       z     vdW  Elec       q    Type
REMARK                         _______ _______ _______ _____ _____    ______ ____
ATOM      1  N   UNL     1      63.475  65.118  70.859  0.00  0.00    +0.000 NA
ATOM      2  C   UNL     1      64.077  65.658  70.703  0.00  0.00    +0.000 A 
ATOM      3  C   UNL     1      64.553  65.934  71.318  0.00  0.00    +0.000 A 
ATOM      4  C   UNL     1      65.157  66.475  71.162  0.00  0.00    +0.000 A 
ATOM      5  C   UNL     1      65.284  66.739  70.391  0.00  0.00    +0.000 A 
ATOM      6  C   UNL     1      64.809  66.464  69.776  0.00  0.00    +0.000 A 
ATOM      7  C   UNL     1      64.205  65.923  69.932  0.00  0.00    +0.000 A 
ATOM      8  S   UNL     1      65.888  67.281  70.235  0.00  0.00    +0.000 S 
ATOM      9  N   UNL     1      66.490  67.821  70.079  0.00  0.00    +0.000 NA
ATOM     10  O   UNL     1      65.687  67.274  69.434  0.00  0.00    +0.000 OA
ATOM     11  O   UNL     1      66.089  67.287  71.035  0.00  0.00    +0.000 OA
ENDROOT
TORSDOF 0
ENDMDL
MODEL 8
REMARK VINA RESULT:    -5.438     24.889     25.506
REMARK INTER + INTRA:          -5.438
REMARK INTER:                  -5.438
REMARK INTRA:                   0.000
REMARK UNBOUND:                 0.000
ROOT
REMARK  Name = sulfanilamide
REMARK                            x       y       z     vdW  Elec       q    Type
REMARK                         _______ _______ _______ _____ _____    ______ ____
ATOM      1  N   UNL     1      69.438  79.553  50.692  0.00  0.00    +0.000 NA
ATOM      2  C   UNL     1      70.100  79.440  50.215  0.00  0.00    +0.000 A 
ATOM      3  C   UNL     1      70.733  79.967  50.254  0.00  0.00    +0.000 A 
ATOM      4  C   UNL     1      71.395  79.854  49.776  0.00  0.00    +0.000 A 
ATOM      5  C   UNL     1      71.425  79.213  49.259  0.00  0.00    +0.000 A 
ATOM      6  C   UNL     1      70.793  78.685  49.218  0.00  0.00    +0.000 A 
ATOM      7  C   UNL     1      70.130  78.798  49.696  0.00  0.00    +0.000 A 
ATOM      8  S   UNL     1      72.089  79.100  48.780  0.00  0.00    +0.000 S 
ATOM      9  N   UNL     1      72.751  78.986  48.303  0.00  0.00    +0.000 NA
ATOM     10  O   UNL     1      71.741  78.424  48.458  0.00  0.00    +0.000 OA
ATOM     11  O   UNL     1      72.437  79.775  49.102  0.00  0.00    +0.000 OA
ENDROOT
TORSDOF 0
ENDMDL
MODEL 9
REMARK VINA RESULT:    -5.425     16.251     16.896
REMARK INTER + INTRA:          -5.425
REMARK INTER:                  -5.425
REMARK INTRA:                   0.000
REMARK UNBOUND:                 0.000
ROOT
REMARK  Name = sulfanilamide
REMARK                            x       y       z     vdW  Elec       q    Type
REMARK                         _______ _______ _______ _____ _____    ______ ____
ATOM      1  N   UNL     1      57.604  75.131  72.370  0.00  0.00    +0.000 NA
ATOM      2  C   UNL     1      58.044  75.807  72.540  0.00  0.00    +0.000 A 
ATOM      3  C   UNL     1      58.854  75.749  72.680  0.00  0.00    +0.000 A 
ATOM      4  C   UNL     1      59.294  76.426  72.851  0.00  0.00    +0.000 A 
ATOM      5  C   UNL     1      58.923  77.161  72.881  0.00  0.00    +0.000 A 
ATOM      6  C   UNL     1      58.112  77.221  72.741  0.00  0.00    +0.000 A 
ATOM      7  C   UNL     1      57.672  76.544  72.571  0.00  0.00    +0.000 A 
ATOM      8  S   UNL     1      59.363  77.839  73.052  0.00  0.00    +0.000 S 
ATOM      9  N   UNL     1      59.802  78.515  73.222  0.00  0.00    +0.000 NA
ATOM     10  O   UNL     1      58.680  78.299  72.989  0.00  0.00    +0.000 OA
ATOM     11  O   UNL     1      60.046  77.380  73.116  0.00  0.00    +0.000 OA
ENDROOT
TORSDOF 0
ENDMDL
