MODEL 1
REMARK VINA RESULT:    -9.773      0.000      0.000
REMARK INTER + INTRA:          -9.773
REMARK INTER:                  -9.773
REMARK INTRA:                   0.000
REMARK UNBOUND:                 0.000
ROOT
REMARK  Name = sulfachlorpyridazine
REMARK                            x       y       z     vdW  Elec       q    Type
REMARK                         _______ _______ _______ _____ _____    ______ ____
ATOM      1  N   UNL     1      62.383  61.628  63.503  0.00  0.00    +0.000 NA
ATOM      2  C   UNL     1      62.003  61.773  64.220  0.00  0.00    +0.000 A 
ATOM      3  C   UNL     1      61.243  61.482  64.350  0.00  0.00    +0.000 A 
ATOM      4  C   UNL     1      60.863  61.627  65.069  0.00  0.00    +0.000 A 
ATOM      5  C   UNL     1      61.243  62.063  65.656  0.00  0.00    +0.000 A 
ATOM      6  C   UNL     1      62.004  62.355  65.526  0.00  0.00    +0.000 A 
ATOM      7  C   UNL     1      62.385  62.210  64.808  0.00  0.00    +0.000 A 
ATOM      8  S   UNL     1      60.863  62.208  66.374  0.00  0.00    +0.000 S 
ATOM      9  O   UNL     1      61.522  62.628  66.638  0.00  0.00    +0.000 OA
ATOM     10  O   UNL     1      60.204  61.788  66.110  0.00  0.00    +0.000 OA
ATOM     11  N   UNL     1      60.483  62.353  67.091  0.00  0.00    +0.000 NA
ATOM     12  C   UNL     1      60.864  62.789  67.679  0.00  0.00    +0.000 A 
ATOM     13  C   UNL     1      60.484  62.935  68.397  0.00  0.00    +0.000 A 
ATOM     14  C   UNL     1      60.864  63.371  68.984  0.00  0.00    +0.000 A 
ATOM     15  C   UNL     1      61.624  63.662  68.854  0.00  0.00    +0.000 A 
ATOM     16 CL   UNL     1      62.006  64.099  69.442  0.00  0.00    +0.000 Cl
ATOM     17  N   UNL     1      62.005  63.517  68.136  0.00  0.00    +0.000 NA
ATOM     18  N   UNL     1      61.624  63.081  67.549  0.00  0.00    +0.000 NA
ENDROOT
TORSDOF 0
ENDMDL
MODEL 2
REMARK VINA RESULT:    -9.448      1.716      3.779
REMARK INTER + INTRA:          -9.448
REMARK INTER:                  -9.448
REMARK INTRA:                   0.000
REMARK UNBOUND:                 0.000
ROOT
REMARK  Name = sulfachlorpyridazine
REMARK                            x       y       z     vdW  Elec       q    Type
REMARK                         _______ _______ _______ _____ _____    ______ ____
ATOM      1  N   UNL     1      61.337  63.935  69.684  0.00  0.00    +0.000 NA
ATOM      2  C   UNL     1      61.167  63.534  68.983  0.00  0.00    +0.000 A 
ATOM      3  C   UNL     1      60.447  63.140  68.899  0.00  0.00    +0.000 A 
ATOM      4  C   UNL     1      60.277  62.738  68.198  0.00  0.00    +0.000 A 
ATOM      5  C   UNL     1      60.826  62.731  67.583  0.00  0.00    +0.000 A 
ATOM      6  C   UNL     1      61.546  63.125  67.667  0.00  0.00    +0.000 A 
ATOM      7  C   UNL     1      61.717  63.527  68.368  0.00  0.00    +0.000 A 
ATOM      8  S   UNL     1      60.655  62.330  66.882  0.00  0.00    +0.000 S 
ATOM      9  O   UNL     1      61.388  62.553  66.576  0.00  0.00    +0.000 OA
ATOM     10  O   UNL     1      59.923  62.106  67.189  0.00  0.00    +0.000 OA
ATOM     11  N   UNL     1      60.485  61.928  66.182  0.00  0.00    +0.000 NA
ATOM     12  C   UNL     1      61.035  61.921  65.567  0.00  0.00    +0.000 A 
ATOM     13  C   UNL     1      60.864  61.519  64.866  0.00  0.00    +0.000 A 
ATOM     14  C   UNL     1      61.413  61.512  64.251  0.00  0.00    +0.000 A 
ATOM     15  C   UNL     1      62.132  61.906  64.335  0.00  0.00    +0.000 A 
ATOM     16 CL   UNL     1      62.682  61.899  63.720  0.00  0.00    +0.000 Cl
ATOM     17  N   UNL     1      62.303  62.308  65.037  0.00  0.00    +0.000 NA
ATOM     18  N   UNL     1      61.754  62.315  65.651  0.00  0.00    +0.000 NA
ENDROOT
TORSDOF 0
ENDMDL
MODEL 3
REMARK VINA RESULT:    -8.864      2.496      3.378
REMARK INTER + INTRA:          -8.864
REMARK INTER:                  -8.864
REMARK INTRA:                   0.000
REMARK UNBOUND:                 0.000
ROOT
REMARK  Name = sulfachlorpyridazine
REMARK                            x       y       z     vdW  Elec       q    Type
REMARK                         _______ _______ _______ _____ _____    ______ ____
ATOM      1  N   UNL     1      61.090  62.968  66.488  0.00  0.00    +0.000 NA
ATOM      2  C   UNL     1      60.990  62.827  67.295  0.00  0.00    +0.000 A 
ATOM      3  C   UNL     1      60.563  62.169  67.548  0.00  0.00    +0.000 A 
ATOM      4  C   UNL     1      60.462  62.028  68.356  0.00  0.00    +0.000 A 
ATOM      5  C   UNL     1      60.788  62.546  68.908  0.00  0.00    +0.000 A 
ATOM      6  C   UNL     1      61.215  63.205  68.655  0.00  0.00    +0.000 A 
ATOM      7  C   UNL     1      61.316  63.346  67.848  0.00  0.00    +0.000 A 
ATOM      8  S   UNL     1      60.687  62.405  69.715  0.00  0.00    +0.000 S 
ATOM      9  O   UNL     1      61.122  63.084  69.888  0.00  0.00    +0.000 OA
ATOM     10  O   UNL     1      60.252  61.725  69.542  0.00  0.00    +0.000 OA
ATOM     11  N   UNL     1      60.586  62.264  70.522  0.00  0.00    +0.000 NA
ATOM     12  C   UNL     1      60.913  62.783  71.074  0.00  0.00    +0.000 A 
ATOM     13  C   UNL     1      60.812  62.642  71.882  0.00  0.00    +0.000 A 
ATOM     14  C   UNL     1      61.137  63.160  72.434  0.00  0.00    +0.000 A 
ATOM     15  C   UNL     1      61.564  63.818  72.181  0.00  0.00    +0.000 A 
ATOM     16 CL   UNL     1      61.890  64.337  72.734  0.00  0.00    +0.000 Cl
ATOM     17  N   UNL     1      61.665  63.959  71.374  0.00  0.00    +0.000 NA
ATOM     18  N   UNL     1      61.339  63.441  70.821  0.00  0.00    +0.000 NA
ENDROOT
TORSDOF 0
ENDMDL
MODEL 4
REMARK VINA RESULT:    -8.578      5.035      6.577
REMARK INTER + INTRA:          -8.578
REMARK INTER:                  -8.578
REMARK INTRA:                   0.000
REMARK UNBOUND:                 0.000
ROOT
REMARK  Name = sulfachlorpyridazine
REMARK                            x       y       z     vdW  Elec       q    Type
REMARK                         _______ _______ _______ _____ _____    ______ ____
ATOM      1  N   UNL     1      66.377  67.707  69.818  0.00  0.00    +0.000 NA
ATOM      2  C   UNL     1      65.770  67.297  70.198  0.00  0.00    +0.000 A 
ATOM      3  C   UNL     1      65.559  67.496  70.969  0.00  0.00    +0.000 A 
ATOM      4  C   UNL     1      64.952  67.085  71.350  0.00  0.00    +0.000 A 
ATOM      5  C   UNL     1      64.557  66.477  70.958  0.00  0.00    +0.000 A 
ATOM      6  C   UNL     1      64.768  66.278  70.185  0.00  0.00    +0.000 A 
ATOM      7  C   UNL     1      65.375  66.689  69.805  0.00  0.00    +0.000 A 
ATOM      8  S   UNL     1      63.951  66.067  71.338  0.00  0.00    +0.000 S 
ATOM      9  O   UNL     1      63.844  65.601  70.666  0.00  0.00    +0.000 OA
ATOM     10  O   UNL     1      64.057  66.533  72.010  0.00  0.00    +0.000 OA
ATOM     11  N   UNL     1      63.344  65.657  71.718  0.00  0.00    +0.000 NA
ATOM     12  C   UNL     1      62.949  65.048  71.325  0.00  0.00    +0.000 A 
ATOM     13  C   UNL     1      62.342  64.637  71.706  0.00  0.00    +0.000 A 
ATOM     14  C   UNL     1      61.947  64.029  71.313  0.00  0.00    +0.000 A 
ATOM     15  C   UNL     1      62.157  63.831  70.542  0.00  0.00    +0.000 A 
ATOM     16 CL   UNL     1      61.762  63.222  70.149  0.00  0.00    +0.000 Cl
ATOM     17  N   UNL     1      62.765  64.241  70.161  0.00  0.00    +0.000 NA
ATOM     18  N   UNL     1      63.160  64.850  70.553  0.00  0.00    +0.000 NA
ENDROOT
TORSDOF 0
ENDMDL
MODEL 5
REMARK VINA RESULT:    -8.532      4.967      6.398
REMARK INTER + INTRA:          -8.532
REMARK INTER:                  -8.532
REMARK INTRA:                   0.000
REMARK UNBOUND:                 0.000
ROOT
REMARK  Name = sulfachlorpyridazine
REMARK                            x       y       z     vdW  Elec       q    Type
REMARK                         _______ _______ _______ _____ _____    ______ ____
ATOM      1  N   UNL     1      61.731  63.295  70.056  0.00  0.00    +0.000 NA
ATOM      2  C   UNL     1      62.185  63.911  70.365  0.00  0.00    +0.000 A 
ATOM      3  C   UNL     1      62.031  64.195  71.123  0.00  0.00    +0.000 A 
ATOM      4  C   UNL     1      62.486  64.811  71.433  0.00  0.00    +0.000 A 
ATOM      5  C   UNL     1      63.093  65.142  70.984  0.00  0.00    +0.000 A 
ATOM      6  C   UNL     1      63.247  64.857  70.225  0.00  0.00    +0.000 A 
ATOM      7  C   UNL     1      62.793  64.241  69.915  0.00  0.00    +0.000 A 
ATOM      8  S   UNL     1      63.547  65.757  71.293  0.00  0.00    +0.000 S 
ATOM      9  O   UNL     1      63.987  65.783  70.596  0.00  0.00    +0.000 OA
ATOM     10  O   UNL     1      63.108  65.731  71.991  0.00  0.00    +0.000 OA
ATOM     11  N   UNL     1      64.001  66.372  71.602  0.00  0.00    +0.000 NA
ATOM     12  C   UNL     1      64.609  66.703  71.152  0.00  0.00    +0.000 A 
ATOM     13  C   UNL     1      65.064  67.319  71.462  0.00  0.00    +0.000 A 
ATOM     14  C   UNL     1      65.671  67.649  71.013  0.00  0.00    +0.000 A 
ATOM     15  C   UNL     1      65.825  67.364  70.254  0.00  0.00    +0.000 A 
ATOM     16 CL   UNL     1      66.432  67.694  69.804  0.00  0.00    +0.000 Cl
ATOM     17  N   UNL     1      65.370  66.748  69.945  0.00  0.00    +0.000 NA
ATOM     18  N   UNL     1      64.763  66.418  70.394  0.00  0.00    +0.000 NA
ENDROOT
TORSDOF 0
ENDMDL
MODEL 6
REMARK VINA RESULT:    -8.477      2.451      4.765
REMARK INTER + INTRA:          -8.477
REMARK INTER:                  -8.477
REMARK INTRA:                   0.000
REMARK UNBOUND:                 0.000
ROOT
REMARK  Name = sulfachlorpyridazine
REMARK                            x       y       z     vdW  Elec       q    Type
REMARK                         _______ _______ _______ _____ _____    ______ ____
ATOM      1  N   UNL     1      60.925  63.352  72.454  0.00  0.00    +0.000 NA
ATOM      2  C   UNL     1      61.049  63.372  71.638  0.00  0.00    +0.000 A 
ATOM      3  C   UNL     1      61.713  63.752  71.332  0.00  0.00    +0.000 A 
ATOM      4  C   UNL     1      61.836  63.773  70.515  0.00  0.00    +0.000 A 
ATOM      5  C   UNL     1      61.295  63.414  70.007  0.00  0.00    +0.000 A 
ATOM      6  C   UNL     1      60.630  63.033  70.314  0.00  0.00    +0.000 A 
ATOM      7  C   UNL     1      60.507  63.013  71.130  0.00  0.00    +0.000 A 
ATOM      8  S   UNL     1      61.419  63.434  69.192  0.00  0.00    +0.000 S 
ATOM      9  O   UNL     1      60.722  63.007  69.076  0.00  0.00    +0.000 OA
ATOM     10  O   UNL     1      62.115  63.861  69.308  0.00  0.00    +0.000 OA
ATOM     11  N   UNL     1      61.542  63.455  68.377  0.00  0.00    +0.000 NA
ATOM     12  C   UNL     1      61.000  63.095  67.869  0.00  0.00    +0.000 A 
ATOM     13  C   UNL     1      61.124  63.116  67.052  0.00  0.00    +0.000 A 
ATOM     14  C   UNL     1      60.583  62.757  66.544  0.00  0.00    +0.000 A 
ATOM     15  C   UNL     1      59.918  62.377  66.851  0.00  0.00    +0.000 A 
ATOM     16 CL   UNL     1      59.377  62.017  66.343  0.00  0.00    +0.000 Cl
ATOM     17  N   UNL     1      59.795  62.356  67.668  0.00  0.00    +0.000 NA
ATOM     18  N   UNL     1      60.336  62.716  68.175  0.00  0.00    +0.000 NA
ENDROOT
TORSDOF 0
ENDMDL
MODEL 7
REMARK VINA RESULT:    -8.356      4.846      5.563
REMARK INTER + INTRA:          -8.356
REMARK INTER:                  -8.356
REMARK INTRA:                   0.000
REMARK UNBOUND:                 0.000
ROOT
REMARK  Name = sulfachlorpyridazine
REMARK                            x       y       z     vdW  Elec       q    Type
REMARK                         _______ _______ _______ _____ _____    ______ ____
ATOM      1  N   UNL     1      65.000  66.017  69.522  0.00  0.00    +0.000 NA
ATOM      2  C   UNL     1      64.403  65.677  69.979  0.00  0.00    +0.000 A 
ATOM      3  C   UNL     1      64.203  66.007  70.708  0.00  0.00    +0.000 A 
ATOM      4  C   UNL     1      63.605  65.666  71.165  0.00  0.00    +0.000 A 
ATOM      5  C   UNL     1      63.209  64.996  70.892  0.00  0.00    +0.000 A 
ATOM      6  C   UNL     1      63.409  64.666  70.163  0.00  0.00    +0.000 A 
ATOM      7  C   UNL     1      64.007  65.007  69.706  0.00  0.00    +0.000 A 
ATOM      8  S   UNL     1      62.612  64.656  71.349  0.00  0.00    +0.000 S 
ATOM      9  O   UNL     1      62.499  64.079  70.771  0.00  0.00    +0.000 OA
ATOM     10  O   UNL     1      62.725  65.234  71.927  0.00  0.00    +0.000 OA
ATOM     11  N   UNL     1      62.015  64.316  71.806  0.00  0.00    +0.000 NA
ATOM     12  C   UNL     1      61.619  63.646  71.533  0.00  0.00    +0.000 A 
ATOM     13  C   UNL     1      61.021  63.305  71.990  0.00  0.00    +0.000 A 
ATOM     14  C   UNL     1      60.625  62.635  71.718  0.00  0.00    +0.000 A 
ATOM     15  C   UNL     1      60.825  62.305  70.989  0.00  0.00    +0.000 A 
ATOM     16 CL   UNL     1      60.429  61.635  70.716  0.00  0.00    +0.000 Cl
ATOM     17  N   UNL     1      61.423  62.646  70.532  0.00  0.00    +0.000 NA
ATOM     18  N   UNL     1      61.819  63.316  70.804  0.00  0.00    +0.000 NA
ENDROOT
TORSDOF 0
ENDMDL
MODEL 8
REMARK VINA RESULT:    -8.188      5.117      5.840
REMARK INTER + INTRA:          -8.188
REMARK INTER:                  -8.188
REMARK INTRA:                   0.000
REMARK UNBOUND:                 0.000
ROOT
REMARK  Name = sulfachlorpyridazine
REMARK                            x       y       z     vdW  Elec       q    Type
REMARK                         _______ _______ _______ _____ _____    ______ ____
ATOM      1  N   UNL     1      62.075  60.923  71.966  0.00  0.00    +0.000 NA
ATOM      2  C   UNL     1      61.627  61.594  71.796  0.00  0.00    +0.000 A 
ATOM      3  C   UNL     1      61.187  61.631  71.100  0.00  0.00    +0.000 A 
ATOM      4  C   UNL     1      60.738  62.303  70.929  0.00  0.00    +0.000 A 
ATOM      5  C   UNL     1      60.730  62.937  71.456  0.00  0.00    +0.000 A 
ATOM      6  C   UNL     1      61.170  62.901  72.153  0.00  0.00    +0.000 A 
ATOM      7  C   UNL     1      61.619  62.229  72.323  0.00  0.00    +0.000 A 
ATOM      8  S   UNL     1      60.282  63.609  71.285  0.00  0.00    +0.000 S 
ATOM      9  O   UNL     1      60.532  63.954  71.992  0.00  0.00    +0.000 OA
ATOM     10  O   UNL     1      60.033  63.263  70.579  0.00  0.00    +0.000 OA
ATOM     11  N   UNL     1      59.834  64.280  71.115  0.00  0.00    +0.000 NA
ATOM     12  C   UNL     1      59.826  64.915  71.642  0.00  0.00    +0.000 A 
ATOM     13  C   UNL     1      59.378  65.587  71.472  0.00  0.00    +0.000 A 
ATOM     14  C   UNL     1      59.370  66.221  71.998  0.00  0.00    +0.000 A 
ATOM     15  C   UNL     1      59.809  66.185  72.694  0.00  0.00    +0.000 A 
ATOM     16 CL   UNL     1      59.802  66.820  73.222  0.00  0.00    +0.000 Cl
ATOM     17  N   UNL     1      60.258  65.513  72.865  0.00  0.00    +0.000 NA
ATOM     18  N   UNL     1      60.266  64.879  72.339  0.00  0.00    +0.000 NA
ENDROOT
TORSDOF 0
ENDMDL
MODEL 9
REMARK VINA RESULT:    -7.506     13.064     14.000
REMARK INTER + INTRA:          -7.506
REMARK INTER:                  -7.506
REMARK INTRA:                   0.000
REMARK UNBOUND:                 0.000
ROOT
REMARK  Name = sulfachlorpyridazine
REMARK                            x       y       z     vdW  Elec       q    Type
REMARK                         _______ _______ _______ _____ _____    ______ ____
ATOM      1  N   UNL     1      62.791  57.596  51.829  0.00  0.00    +0.000 NA
ATOM      2  C   UNL     1      63.003  58.253  52.281  0.00  0.00    +0.000 A 
ATOM      3  C   UNL     1      62.744  58.317  53.061  0.00  0.00    +0.000 A 
ATOM      4  C   UNL     1      62.957  58.975  53.514  0.00  0.00    +0.000 A 
ATOM      5  C   UNL     1      63.429  59.566  53.185  0.00  0.00    +0.000 A 
ATOM      6  C   UNL     1      63.689  59.501  52.405  0.00  0.00    +0.000 A 
ATOM      7  C   UNL     1      63.476  58.844  51.952  0.00  0.00    +0.000 A 
ATOM      8  S   UNL     1      63.642  60.222  53.637  0.00  0.00    +0.000 S 
ATOM      9  O   UNL     1      64.064  60.526  52.997  0.00  0.00    +0.000 OA
ATOM     10  O   UNL     1      63.220  59.918  54.278  0.00  0.00    +0.000 OA
ATOM     11  N   UNL     1      63.855  60.879  54.089  0.00  0.00    +0.000 NA
ATOM     12  C   UNL     1      64.327  61.470  53.760  0.00  0.00    +0.000 A 
ATOM     13  C   UNL     1      64.540  62.128  54.213  0.00  0.00    +0.000 A 
ATOM     14  C   UNL     1      65.011  62.719  53.884  0.00  0.00    +0.000 A 
ATOM     15  C   UNL     1      65.270  62.654  53.104  0.00  0.00    +0.000 A 
ATOM     16 CL   UNL     1      65.742  63.245  52.775  0.00  0.00    +0.000 Cl
ATOM     17  N   UNL     1      65.057  61.996  52.652  0.00  0.00    +0.000 NA
ATOM     18  N   UNL     1      64.586  61.405  52.980  0.00  0.00    +0.000 NA
ENDROOT
TORSDOF 0
ENDMDL
