MODEL 1
REMARK VINA RESULT:   -11.290      0.000      0.000
REMARK INTER + INTRA:         -11.290
REMARK INTER:                 -11.290
REMARK INTRA:                   0.000
REMARK UNBOUND:                 0.000
ROOT
REMARK  Name = sulfachrysoidine
REMARK                            x       y       z     vdW  Elec       q    Type
REMARK                         _______ _______ _______ _____ _____    ______ ____
ATOM      1  N   UNL     1      60.848  63.700  70.945  0.00  0.00    +0.000 NA
ATOM      2  C   UNL     1      61.038  63.542  70.158  0.00  0.00    +0.000 A 
ATOM      3  C   UNL     1      60.705  62.892  69.774  0.00  0.00    +0.000 A 
ATOM      4  C   UNL     1      60.896  62.735  68.988  0.00  0.00    +0.000 A 
ATOM      5  C   UNL     1      60.562  62.084  68.605  0.00  0.00    +0.000 C 
ATOM      6  O   UNL     1      60.753  61.926  67.818  0.00  0.00    +0.000 OA
ATOM      7  O   UNL     1      60.038  61.592  69.009  0.00  0.00    +0.000 OA
ATOM      8  C   UNL     1      61.420  63.226  68.584  0.00  0.00    +0.000 A 
ATOM      9  N   UNL     1      61.611  63.069  67.797  0.00  0.00    +0.000 NA
ATOM     10  N   UNL     1      61.277  62.419  67.414  0.00  0.00    +0.000 NA
ATOM     11  C   UNL     1      61.468  62.261  66.626  0.00  0.00    +0.000 A 
ATOM     12  C   UNL     1      61.134  61.611  66.244  0.00  0.00    +0.000 A 
ATOM     13  C   UNL     1      61.325  61.453  65.457  0.00  0.00    +0.000 A 
ATOM     14  C   UNL     1      61.850  61.946  65.052  0.00  0.00    +0.000 A 
ATOM     15  C   UNL     1      62.183  62.596  65.436  0.00  0.00    +0.000 A 
ATOM     16  C   UNL     1      61.992  62.753  66.223  0.00  0.00    +0.000 A 
ATOM     17  S   UNL     1      62.041  61.788  64.266  0.00  0.00    +0.000 S 
ATOM     18  N   UNL     1      62.232  61.630  63.478  0.00  0.00    +0.000 NA
ATOM     19  O   UNL     1      62.536  62.448  64.254  0.00  0.00    +0.000 OA
ATOM     20  O   UNL     1      61.545  61.129  64.279  0.00  0.00    +0.000 OA
ATOM     21  C   UNL     1      61.753  63.876  68.967  0.00  0.00    +0.000 A 
ATOM     22  N   UNL     1      62.278  64.369  68.563  0.00  0.00    +0.000 NA
ATOM     23  C   UNL     1      61.563  64.034  69.753  0.00  0.00    +0.000 A 
ENDROOT
TORSDOF 0
ENDMDL
MODEL 2
REMARK VINA RESULT:   -10.921      1.873      4.552
REMARK INTER + INTRA:         -10.921
REMARK INTER:                 -10.921
REMARK INTRA:                   0.000
REMARK UNBOUND:                 0.000
ROOT
REMARK  Name = sulfachrysoidine
REMARK                            x       y       z     vdW  Elec       q    Type
REMARK                         _______ _______ _______ _____ _____    ______ ____
ATOM      1  N   UNL     1      61.235  60.897  63.267  0.00  0.00    +0.000 NA
ATOM      2  C   UNL     1      61.293  61.280  63.995  0.00  0.00    +0.000 A 
ATOM      3  C   UNL     1      60.646  61.295  64.507  0.00  0.00    +0.000 A 
ATOM      4  C   UNL     1      60.703  61.677  65.234  0.00  0.00    +0.000 A 
ATOM      5  C   UNL     1      60.055  61.691  65.746  0.00  0.00    +0.000 C 
ATOM      6  O   UNL     1      60.112  62.075  66.474  0.00  0.00    +0.000 OA
ATOM      7  O   UNL     1      59.350  61.321  65.528  0.00  0.00    +0.000 OA
ATOM      8  C   UNL     1      61.407  62.047  65.452  0.00  0.00    +0.000 A 
ATOM      9  N   UNL     1      61.465  62.431  66.180  0.00  0.00    +0.000 NA
ATOM     10  N   UNL     1      60.817  62.444  66.691  0.00  0.00    +0.000 NA
ATOM     11  C   UNL     1      60.875  62.828  67.420  0.00  0.00    +0.000 A 
ATOM     12  C   UNL     1      60.227  62.841  67.930  0.00  0.00    +0.000 A 
ATOM     13  C   UNL     1      60.284  63.225  68.659  0.00  0.00    +0.000 A 
ATOM     14  C   UNL     1      60.989  63.595  68.876  0.00  0.00    +0.000 A 
ATOM     15  C   UNL     1      61.636  63.581  68.365  0.00  0.00    +0.000 A 
ATOM     16  C   UNL     1      61.579  63.197  67.637  0.00  0.00    +0.000 A 
ATOM     17  S   UNL     1      61.047  63.978  69.604  0.00  0.00    +0.000 S 
ATOM     18  N   UNL     1      61.104  64.362  70.333  0.00  0.00    +0.000 NA
ATOM     19  O   UNL     1      61.827  64.183  69.434  0.00  0.00    +0.000 OA
ATOM     20  O   UNL     1      60.266  63.772  69.773  0.00  0.00    +0.000 OA
ATOM     21  C   UNL     1      62.054  62.033  64.940  0.00  0.00    +0.000 A 
ATOM     22  N   UNL     1      62.760  62.403  65.158  0.00  0.00    +0.000 NA
ATOM     23  C   UNL     1      61.997  61.650  64.213  0.00  0.00    +0.000 A 
ENDROOT
TORSDOF 0
ENDMDL
MODEL 3
REMARK VINA RESULT:   -10.330      4.092      5.597
REMARK INTER + INTRA:         -10.330
REMARK INTER:                 -10.330
REMARK INTRA:                   0.000
REMARK UNBOUND:                 0.000
ROOT
REMARK  Name = sulfachrysoidine
REMARK                            x       y       z     vdW  Elec       q    Type
REMARK                         _______ _______ _______ _____ _____    ______ ____
ATOM      1  N   UNL     1      60.276  62.565  71.380  0.00  0.00    +0.000 NA
ATOM      2  C   UNL     1      60.896  63.109  71.344  0.00  0.00    +0.000 A 
ATOM      3  C   UNL     1      61.275  63.257  70.627  0.00  0.00    +0.000 A 
ATOM      4  C   UNL     1      61.894  63.801  70.592  0.00  0.00    +0.000 A 
ATOM      5  C   UNL     1      62.273  63.948  69.873  0.00  0.00    +0.000 C 
ATOM      6  O   UNL     1      62.892  64.492  69.838  0.00  0.00    +0.000 OA
ATOM      7  O   UNL     1      62.033  63.551  69.192  0.00  0.00    +0.000 OA
ATOM      8  C   UNL     1      62.134  64.197  71.274  0.00  0.00    +0.000 A 
ATOM      9  N   UNL     1      62.753  64.742  71.238  0.00  0.00    +0.000 NA
ATOM     10  N   UNL     1      63.132  64.889  70.521  0.00  0.00    +0.000 NA
ATOM     11  C   UNL     1      63.752  65.433  70.486  0.00  0.00    +0.000 A 
ATOM     12  C   UNL     1      64.131  65.580  69.767  0.00  0.00    +0.000 A 
ATOM     13  C   UNL     1      64.750  66.124  69.732  0.00  0.00    +0.000 A 
ATOM     14  C   UNL     1      64.990  66.521  70.415  0.00  0.00    +0.000 A 
ATOM     15  C   UNL     1      64.611  66.374  71.132  0.00  0.00    +0.000 A 
ATOM     16  C   UNL     1      63.992  65.830  71.167  0.00  0.00    +0.000 A 
ATOM     17  S   UNL     1      65.609  67.065  70.379  0.00  0.00    +0.000 S 
ATOM     18  N   UNL     1      66.229  67.610  70.344  0.00  0.00    +0.000 NA
ATOM     19  O   UNL     1      65.528  67.209  71.188  0.00  0.00    +0.000 OA
ATOM     20  O   UNL     1      65.689  66.921  69.571  0.00  0.00    +0.000 OA
ATOM     21  C   UNL     1      61.755  64.050  71.991  0.00  0.00    +0.000 A 
ATOM     22  N   UNL     1      61.995  64.447  72.674  0.00  0.00    +0.000 NA
ATOM     23  C   UNL     1      61.136  63.506  72.026  0.00  0.00    +0.000 A 
ENDROOT
TORSDOF 0
ENDMDL
MODEL 4
REMARK VINA RESULT:   -10.275      4.717      6.279
REMARK INTER + INTRA:         -10.275
REMARK INTER:                 -10.275
REMARK INTRA:                   0.000
REMARK UNBOUND:                 0.000
ROOT
REMARK  Name = sulfachrysoidine
REMARK                            x       y       z     vdW  Elec       q    Type
REMARK                         _______ _______ _______ _____ _____    ______ ____
ATOM      1  N   UNL     1      66.404  67.744  69.952  0.00  0.00    +0.000 NA
ATOM      2  C   UNL     1      65.785  67.298  70.265  0.00  0.00    +0.000 A 
ATOM      3  C   UNL     1      65.496  66.646  69.851  0.00  0.00    +0.000 A 
ATOM      4  C   UNL     1      64.877  66.200  70.163  0.00  0.00    +0.000 A 
ATOM      5  C   UNL     1      64.588  65.547  69.748  0.00  0.00    +0.000 C 
ATOM      6  O   UNL     1      63.969  65.101  70.061  0.00  0.00    +0.000 OA
ATOM      7  O   UNL     1      64.918  65.343  69.020  0.00  0.00    +0.000 OA
ATOM      8  C   UNL     1      64.547  66.404  70.891  0.00  0.00    +0.000 A 
ATOM      9  N   UNL     1      63.928  65.957  71.204  0.00  0.00    +0.000 NA
ATOM     10  N   UNL     1      63.640  65.306  70.789  0.00  0.00    +0.000 NA
ATOM     11  C   UNL     1      63.020  64.859  71.103  0.00  0.00    +0.000 A 
ATOM     12  C   UNL     1      62.731  64.207  70.687  0.00  0.00    +0.000 A 
ATOM     13  C   UNL     1      62.112  63.761  71.000  0.00  0.00    +0.000 A 
ATOM     14  C   UNL     1      61.782  63.966  71.729  0.00  0.00    +0.000 A 
ATOM     15  C   UNL     1      62.072  64.617  72.143  0.00  0.00    +0.000 A 
ATOM     16  C   UNL     1      62.691  65.064  71.830  0.00  0.00    +0.000 A 
ATOM     17  S   UNL     1      61.164  63.520  72.042  0.00  0.00    +0.000 S 
ATOM     18  N   UNL     1      60.544  63.072  72.355  0.00  0.00    +0.000 NA
ATOM     19  O   UNL     1      61.140  64.014  72.702  0.00  0.00    +0.000 OA
ATOM     20  O   UNL     1      61.187  63.025  71.382  0.00  0.00    +0.000 OA
ATOM     21  C   UNL     1      64.837  67.056  71.306  0.00  0.00    +0.000 A 
ATOM     22  N   UNL     1      64.507  67.261  72.034  0.00  0.00    +0.000 NA
ATOM     23  C   UNL     1      65.455  67.502  70.993  0.00  0.00    +0.000 A 
ENDROOT
TORSDOF 0
ENDMDL
MODEL 5
REMARK VINA RESULT:   -10.198      1.813      2.824
REMARK INTER + INTRA:         -10.198
REMARK INTER:                 -10.198
REMARK INTRA:                   0.000
REMARK UNBOUND:                 0.000
ROOT
REMARK  Name = sulfachrysoidine
REMARK                            x       y       z     vdW  Elec       q    Type
REMARK                         _______ _______ _______ _____ _____    ______ ____
ATOM      1  N   UNL     1      62.076  64.638  72.794  0.00  0.00    +0.000 NA
ATOM      2  C   UNL     1      61.767  64.337  72.090  0.00  0.00    +0.000 A 
ATOM      3  C   UNL     1      62.236  64.309  71.412  0.00  0.00    +0.000 A 
ATOM      4  C   UNL     1      61.928  64.008  70.710  0.00  0.00    +0.000 A 
ATOM      5  C   UNL     1      62.398  63.980  70.031  0.00  0.00    +0.000 C 
ATOM      6  O   UNL     1      62.089  63.679  69.328  0.00  0.00    +0.000 OA
ATOM      7  O   UNL     1      63.176  64.253  70.057  0.00  0.00    +0.000 OA
ATOM      8  C   UNL     1      61.150  63.734  70.684  0.00  0.00    +0.000 A 
ATOM      9  N   UNL     1      60.842  63.433  69.980  0.00  0.00    +0.000 NA
ATOM     10  N   UNL     1      61.311  63.405  69.303  0.00  0.00    +0.000 NA
ATOM     11  C   UNL     1      61.002  63.104  68.599  0.00  0.00    +0.000 A 
ATOM     12  C   UNL     1      61.472  63.076  67.921  0.00  0.00    +0.000 A 
ATOM     13  C   UNL     1      61.163  62.775  67.218  0.00  0.00    +0.000 A 
ATOM     14  C   UNL     1      60.385  62.502  67.192  0.00  0.00    +0.000 A 
ATOM     15  C   UNL     1      59.916  62.530  67.870  0.00  0.00    +0.000 A 
ATOM     16  C   UNL     1      60.225  62.831  68.574  0.00  0.00    +0.000 A 
ATOM     17  S   UNL     1      60.077  62.201  66.490  0.00  0.00    +0.000 S 
ATOM     18  N   UNL     1      59.768  61.899  65.785  0.00  0.00    +0.000 NA
ATOM     19  O   UNL     1      59.356  62.059  66.866  0.00  0.00    +0.000 OA
ATOM     20  O   UNL     1      60.797  62.342  66.113  0.00  0.00    +0.000 OA
ATOM     21  C   UNL     1      60.681  63.763  71.362  0.00  0.00    +0.000 A 
ATOM     22  N   UNL     1      59.903  63.489  71.336  0.00  0.00    +0.000 NA
ATOM     23  C   UNL     1      60.990  64.063  72.064  0.00  0.00    +0.000 A 
ENDROOT
TORSDOF 0
ENDMDL
MODEL 6
REMARK VINA RESULT:    -9.920      4.544      6.092
REMARK INTER + INTRA:          -9.920
REMARK INTER:                  -9.920
REMARK INTRA:                   0.000
REMARK UNBOUND:                 0.000
ROOT
REMARK  Name = sulfachrysoidine
REMARK                            x       y       z     vdW  Elec       q    Type
REMARK                         _______ _______ _______ _____ _____    ______ ____
ATOM      1  N   UNL     1      63.120  68.837  73.042  0.00  0.00    +0.000 NA
ATOM      2  C   UNL     1      62.762  68.118  72.856  0.00  0.00    +0.000 A 
ATOM      3  C   UNL     1      63.194  67.528  72.474  0.00  0.00    +0.000 A 
ATOM      4  C   UNL     1      62.837  66.809  72.288  0.00  0.00    +0.000 A 
ATOM      5  C   UNL     1      63.270  66.219  71.906  0.00  0.00    +0.000 C 
ATOM      6  O   UNL     1      62.912  65.500  71.720  0.00  0.00    +0.000 OA
ATOM      7  O   UNL     1      64.060  66.350  71.711  0.00  0.00    +0.000 OA
ATOM      8  C   UNL     1      62.046  66.678  72.483  0.00  0.00    +0.000 A 
ATOM      9  N   UNL     1      61.688  65.959  72.297  0.00  0.00    +0.000 NA
ATOM     10  N   UNL     1      62.121  65.370  71.915  0.00  0.00    +0.000 NA
ATOM     11  C   UNL     1      61.762  64.649  71.729  0.00  0.00    +0.000 A 
ATOM     12  C   UNL     1      62.196  64.060  71.347  0.00  0.00    +0.000 A 
ATOM     13  C   UNL     1      61.838  63.341  71.161  0.00  0.00    +0.000 A 
ATOM     14  C   UNL     1      61.047  63.210  71.356  0.00  0.00    +0.000 A 
ATOM     15  C   UNL     1      60.614  63.800  71.738  0.00  0.00    +0.000 A 
ATOM     16  C   UNL     1      60.972  64.520  71.924  0.00  0.00    +0.000 A 
ATOM     17  S   UNL     1      60.689  62.492  71.170  0.00  0.00    +0.000 S 
ATOM     18  N   UNL     1      60.331  61.771  70.984  0.00  0.00    +0.000 NA
ATOM     19  O   UNL     1      59.983  62.757  71.503  0.00  0.00    +0.000 OA
ATOM     20  O   UNL     1      61.396  62.226  70.837  0.00  0.00    +0.000 OA
ATOM     21  C   UNL     1      61.613  67.268  72.865  0.00  0.00    +0.000 A 
ATOM     22  N   UNL     1      60.822  67.138  73.060  0.00  0.00    +0.000 NA
ATOM     23  C   UNL     1      61.971  67.987  73.051  0.00  0.00    +0.000 A 
ENDROOT
TORSDOF 0
ENDMDL
MODEL 7
REMARK VINA RESULT:    -9.904      3.266      5.743
REMARK INTER + INTRA:          -9.904
REMARK INTER:                  -9.904
REMARK INTRA:                   0.000
REMARK UNBOUND:                 0.000
ROOT
REMARK  Name = sulfachrysoidine
REMARK                            x       y       z     vdW  Elec       q    Type
REMARK                         _______ _______ _______ _____ _____    ______ ____
ATOM      1  N   UNL     1      61.123  61.700  67.384  0.00  0.00    +0.000 NA
ATOM      2  C   UNL     1      60.906  62.264  67.946  0.00  0.00    +0.000 A 
ATOM      3  C   UNL     1      60.732  62.031  68.718  0.00  0.00    +0.000 A 
ATOM      4  C   UNL     1      60.516  62.594  69.280  0.00  0.00    +0.000 A 
ATOM      5  C   UNL     1      60.342  62.361  70.052  0.00  0.00    +0.000 C 
ATOM      6  O   UNL     1      60.126  62.925  70.615  0.00  0.00    +0.000 OA
ATOM      7  O   UNL     1      60.384  61.564  70.261  0.00  0.00    +0.000 OA
ATOM      8  C   UNL     1      60.474  63.391  69.071  0.00  0.00    +0.000 A 
ATOM      9  N   UNL     1      60.258  63.955  69.633  0.00  0.00    +0.000 NA
ATOM     10  N   UNL     1      60.084  63.721  70.404  0.00  0.00    +0.000 NA
ATOM     11  C   UNL     1      59.868  64.286  70.967  0.00  0.00    +0.000 A 
ATOM     12  C   UNL     1      59.694  64.052  71.739  0.00  0.00    +0.000 A 
ATOM     13  C   UNL     1      59.478  64.615  72.302  0.00  0.00    +0.000 A 
ATOM     14  C   UNL     1      59.435  65.413  72.092  0.00  0.00    +0.000 A 
ATOM     15  C   UNL     1      59.610  65.645  71.320  0.00  0.00    +0.000 A 
ATOM     16  C   UNL     1      59.826  65.082  70.758  0.00  0.00    +0.000 A 
ATOM     17  S   UNL     1      59.219  65.976  72.654  0.00  0.00    +0.000 S 
ATOM     18  N   UNL     1      59.003  66.540  73.217  0.00  0.00    +0.000 NA
ATOM     19  O   UNL     1      59.296  66.570  72.087  0.00  0.00    +0.000 OA
ATOM     20  O   UNL     1      59.143  65.381  73.221  0.00  0.00    +0.000 OA
ATOM     21  C   UNL     1      60.648  63.624  68.299  0.00  0.00    +0.000 A 
ATOM     22  N   UNL     1      60.606  64.421  68.089  0.00  0.00    +0.000 NA
ATOM     23  C   UNL     1      60.864  63.061  67.737  0.00  0.00    +0.000 A 
ENDROOT
TORSDOF 0
ENDMDL
MODEL 8
REMARK VINA RESULT:    -9.459      2.636      3.852
REMARK INTER + INTRA:          -9.459
REMARK INTER:                  -9.459
REMARK INTRA:                   0.000
REMARK UNBOUND:                 0.000
ROOT
REMARK  Name = sulfachrysoidine
REMARK                            x       y       z     vdW  Elec       q    Type
REMARK                         _______ _______ _______ _____ _____    ______ ____
ATOM      1  N   UNL     1      64.754  66.742  71.255  0.00  0.00    +0.000 NA
ATOM      2  C   UNL     1      64.286  66.214  70.826  0.00  0.00    +0.000 A 
ATOM      3  C   UNL     1      63.495  66.393  70.675  0.00  0.00    +0.000 A 
ATOM      4  C   UNL     1      63.028  65.867  70.246  0.00  0.00    +0.000 A 
ATOM      5  C   UNL     1      62.237  66.046  70.095  0.00  0.00    +0.000 C 
ATOM      6  O   UNL     1      61.769  65.519  69.666  0.00  0.00    +0.000 OA
ATOM      7  O   UNL     1      61.914  66.752  70.373  0.00  0.00    +0.000 OA
ATOM      8  C   UNL     1      63.351  65.160  69.968  0.00  0.00    +0.000 A 
ATOM      9  N   UNL     1      62.883  64.633  69.539  0.00  0.00    +0.000 NA
ATOM     10  N   UNL     1      62.093  64.813  69.388  0.00  0.00    +0.000 NA
ATOM     11  C   UNL     1      61.625  64.285  68.958  0.00  0.00    +0.000 A 
ATOM     12  C   UNL     1      60.834  64.465  68.807  0.00  0.00    +0.000 A 
ATOM     13  C   UNL     1      60.366  63.938  68.378  0.00  0.00    +0.000 A 
ATOM     14  C   UNL     1      60.690  63.231  68.100  0.00  0.00    +0.000 A 
ATOM     15  C   UNL     1      61.481  63.052  68.251  0.00  0.00    +0.000 A 
ATOM     16  C   UNL     1      61.948  63.579  68.680  0.00  0.00    +0.000 A 
ATOM     17  S   UNL     1      60.223  62.704  67.671  0.00  0.00    +0.000 S 
ATOM     18  N   UNL     1      59.754  62.177  67.241  0.00  0.00    +0.000 NA
ATOM     19  O   UNL     1      60.866  62.193  67.598  0.00  0.00    +0.000 OA
ATOM     20  O   UNL     1      59.579  63.215  67.744  0.00  0.00    +0.000 OA
ATOM     21  C   UNL     1      64.142  64.982  70.119  0.00  0.00    +0.000 A 
ATOM     22  N   UNL     1      64.465  64.275  69.841  0.00  0.00    +0.000 NA
ATOM     23  C   UNL     1      64.609  65.508  70.548  0.00  0.00    +0.000 A 
ENDROOT
TORSDOF 0
ENDMDL
MODEL 9
REMARK VINA RESULT:    -9.103      2.964      4.363
REMARK INTER + INTRA:          -9.103
REMARK INTER:                  -9.103
REMARK INTRA:                   0.000
REMARK UNBOUND:                 0.000
ROOT
REMARK  Name = sulfachrysoidine
REMARK                            x       y       z     vdW  Elec       q    Type
REMARK                         _______ _______ _______ _____ _____    ______ ____
ATOM      1  N   UNL     1      62.094  68.012  72.660  0.00  0.00    +0.000 NA
ATOM      2  C   UNL     1      61.816  67.453  72.120  0.00  0.00    +0.000 A 
ATOM      3  C   UNL     1      62.281  66.800  71.925  0.00  0.00    +0.000 A 
ATOM      4  C   UNL     1      62.004  66.242  71.386  0.00  0.00    +0.000 A 
ATOM      5  C   UNL     1      62.469  65.589  71.191  0.00  0.00    +0.000 C 
ATOM      6  O   UNL     1      62.191  65.030  70.651  0.00  0.00    +0.000 OA
ATOM      7  O   UNL     1      63.213  65.496  71.536  0.00  0.00    +0.000 OA
ATOM      8  C   UNL     1      61.260  66.336  71.041  0.00  0.00    +0.000 A 
ATOM      9  N   UNL     1      60.982  65.777  70.501  0.00  0.00    +0.000 NA
ATOM     10  N   UNL     1      61.447  65.125  70.306  0.00  0.00    +0.000 NA
ATOM     11  C   UNL     1      61.169  64.566  69.766  0.00  0.00    +0.000 A 
ATOM     12  C   UNL     1      61.635  63.913  69.572  0.00  0.00    +0.000 A 
ATOM     13  C   UNL     1      61.357  63.355  69.032  0.00  0.00    +0.000 A 
ATOM     14  C   UNL     1      60.613  63.448  68.687  0.00  0.00    +0.000 A 
ATOM     15  C   UNL     1      60.148  64.101  68.882  0.00  0.00    +0.000 A 
ATOM     16  C   UNL     1      60.426  64.660  69.422  0.00  0.00    +0.000 A 
ATOM     17  S   UNL     1      60.335  62.890  68.148  0.00  0.00    +0.000 S 
ATOM     18  N   UNL     1      60.057  62.331  67.608  0.00  0.00    +0.000 NA
ATOM     19  O   UNL     1      59.637  63.322  68.061  0.00  0.00    +0.000 OA
ATOM     20  O   UNL     1      61.033  62.459  68.234  0.00  0.00    +0.000 OA
ATOM     21  C   UNL     1      60.795  66.988  71.236  0.00  0.00    +0.000 A 
ATOM     22  N   UNL     1      60.051  67.082  70.891  0.00  0.00    +0.000 NA
ATOM     23  C   UNL     1      61.073  67.546  71.775  0.00  0.00    +0.000 A 
ENDROOT
TORSDOF 0
ENDMDL
