MODEL 1
REMARK VINA RESULT:   -13.448      0.000      0.000
REMARK INTER + INTRA:         -13.448
REMARK INTER:                 -13.448
REMARK INTRA:                   0.000
REMARK UNBOUND:                 0.000
ROOT
REMARK  Name = sulfaloxic acid
REMARK                            x       y       z     vdW  Elec       q    Type
REMARK                         _______ _______ _______ _____ _____    ______ ____
ATOM      1  O   UNL     1      60.645  64.636  72.820  0.00  0.00    +0.000 OA
ATOM      2  C   UNL     1      60.517  64.229  72.114  0.00  0.00    +0.000 C 
ATOM      3  N   UNL     1      61.025  64.344  71.473  0.00  0.00    +0.000 NA
ATOM      4  C   UNL     1      60.897  63.937  70.768  0.00  0.00    +0.000 C 
ATOM      5  O   UNL     1      60.260  63.416  70.701  0.00  0.00    +0.000 OA
ATOM      6  N   UNL     1      61.405  64.051  70.127  0.00  0.00    +0.000 NA
ATOM      7  S   UNL     1      61.276  63.645  69.421  0.00  0.00    +0.000 S 
ATOM      8  O   UNL     1      60.616  63.278  69.752  0.00  0.00    +0.000 OA
ATOM      9  O   UNL     1      61.937  64.012  69.090  0.00  0.00    +0.000 OA
ATOM     10  C   UNL     1      61.148  63.238  68.715  0.00  0.00    +0.000 A 
ATOM     11  C   UNL     1      61.656  63.352  68.075  0.00  0.00    +0.000 A 
ATOM     12  C   UNL     1      61.528  62.946  67.369  0.00  0.00    +0.000 A 
ATOM     13  C   UNL     1      60.892  62.424  67.303  0.00  0.00    +0.000 A 
ATOM     14  N   UNL     1      60.764  62.018  66.596  0.00  0.00    +0.000 NA
ATOM     15  C   UNL     1      61.271  62.132  65.957  0.00  0.00    +0.000 C 
ATOM     16  O   UNL     1      61.908  62.653  66.023  0.00  0.00    +0.000 OA
ATOM     17  C   UNL     1      61.143  61.725  65.250  0.00  0.00    +0.000 A 
ATOM     18  C   UNL     1      61.651  61.840  64.610  0.00  0.00    +0.000 A 
ATOM     19  C   UNL     1      61.523  61.433  63.904  0.00  0.00    +0.000 A 
ATOM     20  C   UNL     1      60.886  60.911  63.837  0.00  0.00    +0.000 A 
ATOM     21  C   UNL     1      60.379  60.797  64.478  0.00  0.00    +0.000 A 
ATOM     22  C   UNL     1      60.507  61.204  65.184  0.00  0.00    +0.000 A 
ATOM     23  C   UNL     1      62.287  62.360  64.676  0.00  0.00    +0.000 C 
ATOM     24  O   UNL     1      62.795  62.475  64.036  0.00  0.00    +0.000 OA
ATOM     25  O   UNL     1      62.415  62.768  65.383  0.00  0.00    +0.000 OA
ATOM     26  C   UNL     1      60.384  62.310  67.943  0.00  0.00    +0.000 A 
ATOM     27  C   UNL     1      60.512  62.717  68.648  0.00  0.00    +0.000 A 
ENDROOT
TORSDOF 0
ENDMDL
MODEL 2
REMARK VINA RESULT:   -12.659      1.339      5.742
REMARK INTER + INTRA:         -12.659
REMARK INTER:                 -12.659
REMARK INTRA:                   0.000
REMARK UNBOUND:                 0.000
ROOT
REMARK  Name = sulfaloxic acid
REMARK                            x       y       z     vdW  Elec       q    Type
REMARK                         _______ _______ _______ _____ _____    ______ ____
ATOM      1  O   UNL     1      61.006  60.887  63.178  0.00  0.00    +0.000 OA
ATOM      2  C   UNL     1      60.879  60.984  63.987  0.00  0.00    +0.000 C 
ATOM      3  N   UNL     1      61.256  61.596  64.394  0.00  0.00    +0.000 NA
ATOM      4  C   UNL     1      61.129  61.693  65.202  0.00  0.00    +0.000 C 
ATOM      5  O   UNL     1      60.624  61.179  65.606  0.00  0.00    +0.000 OA
ATOM      6  N   UNL     1      61.505  62.304  65.609  0.00  0.00    +0.000 NA
ATOM      7  S   UNL     1      61.378  62.402  66.418  0.00  0.00    +0.000 S 
ATOM      8  O   UNL     1      60.869  61.752  66.416  0.00  0.00    +0.000 OA
ATOM      9  O   UNL     1      61.887  63.051  66.420  0.00  0.00    +0.000 OA
ATOM     10  C   UNL     1      61.251  62.499  67.227  0.00  0.00    +0.000 A 
ATOM     11  C   UNL     1      61.627  63.110  67.634  0.00  0.00    +0.000 A 
ATOM     12  C   UNL     1      61.500  63.208  68.442  0.00  0.00    +0.000 A 
ATOM     13  C   UNL     1      60.996  62.694  68.846  0.00  0.00    +0.000 A 
ATOM     14  N   UNL     1      60.868  62.792  69.655  0.00  0.00    +0.000 NA
ATOM     15  C   UNL     1      61.245  63.403  70.061  0.00  0.00    +0.000 C 
ATOM     16  O   UNL     1      61.750  63.917  69.658  0.00  0.00    +0.000 OA
ATOM     17  C   UNL     1      61.118  63.500  70.871  0.00  0.00    +0.000 A 
ATOM     18  C   UNL     1      61.495  64.112  71.277  0.00  0.00    +0.000 A 
ATOM     19  C   UNL     1      61.368  64.209  72.086  0.00  0.00    +0.000 A 
ATOM     20  C   UNL     1      60.863  63.696  72.490  0.00  0.00    +0.000 A 
ATOM     21  C   UNL     1      60.486  63.085  72.083  0.00  0.00    +0.000 A 
ATOM     22  C   UNL     1      60.613  62.987  71.274  0.00  0.00    +0.000 A 
ATOM     23  C   UNL     1      61.999  64.625  70.874  0.00  0.00    +0.000 C 
ATOM     24  O   UNL     1      62.377  65.236  71.280  0.00  0.00    +0.000 OA
ATOM     25  O   UNL     1      62.127  64.527  70.064  0.00  0.00    +0.000 OA
ATOM     26  C   UNL     1      60.619  62.084  68.439  0.00  0.00    +0.000 A 
ATOM     27  C   UNL     1      60.746  61.986  67.631  0.00  0.00    +0.000 A 
ENDROOT
TORSDOF 0
ENDMDL
MODEL 3
REMARK VINA RESULT:   -12.498      1.620      2.233
REMARK INTER + INTRA:         -12.498
REMARK INTER:                 -12.498
REMARK INTRA:                   0.000
REMARK UNBOUND:                 0.000
ROOT
REMARK  Name = sulfaloxic acid
REMARK                            x       y       z     vdW  Elec       q    Type
REMARK                         _______ _______ _______ _____ _____    ______ ____
ATOM      1  O   UNL     1      62.285  66.694  73.219  0.00  0.00    +0.000 OA
ATOM      2  C   UNL     1      62.383  66.271  72.517  0.00  0.00    +0.000 C 
ATOM      3  N   UNL     1      61.725  65.956  72.130  0.00  0.00    +0.000 NA
ATOM      4  C   UNL     1      61.823  65.533  71.429  0.00  0.00    +0.000 C 
ATOM      5  O   UNL     1      62.578  65.424  71.114  0.00  0.00    +0.000 OA
ATOM      6  N   UNL     1      61.166  65.218  71.042  0.00  0.00    +0.000 NA
ATOM      7  S   UNL     1      61.264  64.795  70.340  0.00  0.00    +0.000 S 
ATOM      8  O   UNL     1      62.079  64.914  70.382  0.00  0.00    +0.000 OA
ATOM      9  O   UNL     1      60.449  64.676  70.299  0.00  0.00    +0.000 OA
ATOM     10  C   UNL     1      61.362  64.372  69.639  0.00  0.00    +0.000 A 
ATOM     11  C   UNL     1      60.705  64.057  69.252  0.00  0.00    +0.000 A 
ATOM     12  C   UNL     1      60.803  63.635  68.551  0.00  0.00    +0.000 A 
ATOM     13  C   UNL     1      61.557  63.526  68.236  0.00  0.00    +0.000 A 
ATOM     14  N   UNL     1      61.655  63.102  67.535  0.00  0.00    +0.000 NA
ATOM     15  C   UNL     1      60.998  62.788  67.148  0.00  0.00    +0.000 C 
ATOM     16  O   UNL     1      60.243  62.897  67.462  0.00  0.00    +0.000 OA
ATOM     17  C   UNL     1      61.096  62.364  66.446  0.00  0.00    +0.000 A 
ATOM     18  C   UNL     1      60.438  62.050  66.059  0.00  0.00    +0.000 A 
ATOM     19  C   UNL     1      60.536  61.627  65.358  0.00  0.00    +0.000 A 
ATOM     20  C   UNL     1      61.291  61.518  65.043  0.00  0.00    +0.000 A 
ATOM     21  C   UNL     1      61.948  61.833  65.431  0.00  0.00    +0.000 A 
ATOM     22  C   UNL     1      61.850  62.256  66.132  0.00  0.00    +0.000 A 
ATOM     23  C   UNL     1      59.684  62.159  66.374  0.00  0.00    +0.000 C 
ATOM     24  O   UNL     1      59.026  61.844  65.987  0.00  0.00    +0.000 OA
ATOM     25  O   UNL     1      59.586  62.582  67.076  0.00  0.00    +0.000 OA
ATOM     26  C   UNL     1      62.214  63.840  68.624  0.00  0.00    +0.000 A 
ATOM     27  C   UNL     1      62.116  64.263  69.324  0.00  0.00    +0.000 A 
ENDROOT
TORSDOF 0
ENDMDL
MODEL 4
REMARK VINA RESULT:   -11.743      3.337      5.104
REMARK INTER + INTRA:         -11.743
REMARK INTER:                 -11.743
REMARK INTRA:                   0.000
REMARK UNBOUND:                 0.000
ROOT
REMARK  Name = sulfaloxic acid
REMARK                            x       y       z     vdW  Elec       q    Type
REMARK                         _______ _______ _______ _____ _____    ______ ____
ATOM      1  O   UNL     1      67.010  68.282  70.121  0.00  0.00    +0.000 OA
ATOM      2  C   UNL     1      66.481  67.693  70.354  0.00  0.00    +0.000 C 
ATOM      3  N   UNL     1      65.973  67.351  69.800  0.00  0.00    +0.000 NA
ATOM      4  C   UNL     1      65.446  66.763  70.033  0.00  0.00    +0.000 C 
ATOM      5  O   UNL     1      65.424  66.515  70.820  0.00  0.00    +0.000 OA
ATOM      6  N   UNL     1      64.938  66.421  69.480  0.00  0.00    +0.000 NA
ATOM      7  S   UNL     1      64.409  65.832  69.713  0.00  0.00    +0.000 S 
ATOM      8  O   UNL     1      64.690  65.886  70.487  0.00  0.00    +0.000 OA
ATOM      9  O   UNL     1      64.129  65.778  68.939  0.00  0.00    +0.000 OA
ATOM     10  C   UNL     1      63.881  65.243  69.946  0.00  0.00    +0.000 A 
ATOM     11  C   UNL     1      63.373  64.901  69.393  0.00  0.00    +0.000 A 
ATOM     12  C   UNL     1      62.845  64.313  69.625  0.00  0.00    +0.000 A 
ATOM     13  C   UNL     1      62.824  64.065  70.412  0.00  0.00    +0.000 A 
ATOM     14  N   UNL     1      62.295  63.476  70.645  0.00  0.00    +0.000 NA
ATOM     15  C   UNL     1      61.788  63.135  70.091  0.00  0.00    +0.000 C 
ATOM     16  O   UNL     1      61.809  63.382  69.304  0.00  0.00    +0.000 OA
ATOM     17  C   UNL     1      61.259  62.545  70.324  0.00  0.00    +0.000 A 
ATOM     18  C   UNL     1      60.752  62.204  69.770  0.00  0.00    +0.000 A 
ATOM     19  C   UNL     1      60.223  61.615  70.003  0.00  0.00    +0.000 A 
ATOM     20  C   UNL     1      60.202  61.367  70.790  0.00  0.00    +0.000 A 
ATOM     21  C   UNL     1      60.709  61.709  71.343  0.00  0.00    +0.000 A 
ATOM     22  C   UNL     1      61.238  62.298  71.110  0.00  0.00    +0.000 A 
ATOM     23  C   UNL     1      60.773  62.451  68.984  0.00  0.00    +0.000 C 
ATOM     24  O   UNL     1      60.266  62.110  68.429  0.00  0.00    +0.000 OA
ATOM     25  O   UNL     1      61.302  63.041  68.751  0.00  0.00    +0.000 OA
ATOM     26  C   UNL     1      63.331  64.407  70.965  0.00  0.00    +0.000 A 
ATOM     27  C   UNL     1      63.859  64.995  70.732  0.00  0.00    +0.000 A 
ENDROOT
TORSDOF 0
ENDMDL
MODEL 5
REMARK VINA RESULT:   -10.647     23.946     25.498
REMARK INTER + INTRA:         -10.647
REMARK INTER:                 -10.647
REMARK INTRA:                   0.000
REMARK UNBOUND:                 0.000
ROOT
REMARK  Name = sulfaloxic acid
REMARK                            x       y       z     vdW  Elec       q    Type
REMARK                         _______ _______ _______ _____ _____    ______ ____
ATOM      1  O   UNL     1      66.277  82.149  55.259  0.00  0.00    +0.000 OA
ATOM      2  C   UNL     1      66.591  81.776  54.594  0.00  0.00    +0.000 C 
ATOM      3  N   UNL     1      67.397  81.844  54.424  0.00  0.00    +0.000 NA
ATOM      4  C   UNL     1      67.711  81.472  53.760  0.00  0.00    +0.000 C 
ATOM      5  O   UNL     1      67.220  81.031  53.263  0.00  0.00    +0.000 OA
ATOM      6  N   UNL     1      68.515  81.539  53.590  0.00  0.00    +0.000 NA
ATOM      7  S   UNL     1      68.830  81.166  52.925  0.00  0.00    +0.000 S 
ATOM      8  O   UNL     1      68.082  80.873  52.736  0.00  0.00    +0.000 OA
ATOM      9  O   UNL     1      69.577  81.460  53.114  0.00  0.00    +0.000 OA
ATOM     10  C   UNL     1      69.144  80.794  52.259  0.00  0.00    +0.000 A 
ATOM     11  C   UNL     1      69.949  80.861  52.090  0.00  0.00    +0.000 A 
ATOM     12  C   UNL     1      70.263  80.489  51.425  0.00  0.00    +0.000 A 
ATOM     13  C   UNL     1      69.773  80.048  50.929  0.00  0.00    +0.000 A 
ATOM     14  N   UNL     1      70.088  79.676  50.263  0.00  0.00    +0.000 NA
ATOM     15  C   UNL     1      70.892  79.743  50.095  0.00  0.00    +0.000 C 
ATOM     16  O   UNL     1      71.383  80.184  50.591  0.00  0.00    +0.000 OA
ATOM     17  C   UNL     1      71.207  79.370  49.428  0.00  0.00    +0.000 A 
ATOM     18  C   UNL     1      72.012  79.438  49.260  0.00  0.00    +0.000 A 
ATOM     19  C   UNL     1      72.326  79.066  48.595  0.00  0.00    +0.000 A 
ATOM     20  C   UNL     1      71.836  78.625  48.098  0.00  0.00    +0.000 A 
ATOM     21  C   UNL     1      71.032  78.557  48.267  0.00  0.00    +0.000 A 
ATOM     22  C   UNL     1      70.717  78.930  48.932  0.00  0.00    +0.000 A 
ATOM     23  C   UNL     1      72.502  79.878  49.756  0.00  0.00    +0.000 C 
ATOM     24  O   UNL     1      73.307  79.946  49.587  0.00  0.00    +0.000 OA
ATOM     25  O   UNL     1      72.187  80.252  50.422  0.00  0.00    +0.000 OA
ATOM     26  C   UNL     1      68.969  79.981  51.098  0.00  0.00    +0.000 A 
ATOM     27  C   UNL     1      68.655  80.353  51.763  0.00  0.00    +0.000 A 
ENDROOT
TORSDOF 0
ENDMDL
