MODEL 1
REMARK VINA RESULT:    -8.840      0.000      0.000
REMARK INTER + INTRA:          -8.840
REMARK INTER:                  -8.840
REMARK INTRA:                   0.000
REMARK UNBOUND:                 0.000
ROOT
REMARK  Name = sulfathiazole
REMARK                            x       y       z     vdW  Elec       q    Type
REMARK                         _______ _______ _______ _____ _____    ______ ____
ATOM      1  N   UNL     1      62.571  61.619  63.482  0.00  0.00    +0.000 NA
ATOM      2  C   UNL     1      62.100  61.762  64.145  0.00  0.00    +0.000 A 
ATOM      3  C   UNL     1      61.355  61.414  64.204  0.00  0.00    +0.000 A 
ATOM      4  C   UNL     1      60.884  61.557  64.867  0.00  0.00    +0.000 A 
ATOM      5  C   UNL     1      61.160  62.047  65.470  0.00  0.00    +0.000 A 
ATOM      6  C   UNL     1      61.906  62.395  65.411  0.00  0.00    +0.000 A 
ATOM      7  C   UNL     1      62.376  62.252  64.748  0.00  0.00    +0.000 A 
ATOM      8  S   UNL     1      60.691  62.191  66.133  0.00  0.00    +0.000 S 
ATOM      9  O   UNL     1      61.280  62.674  66.447  0.00  0.00    +0.000 OA
ATOM     10  O   UNL     1      60.100  61.706  65.819  0.00  0.00    +0.000 OA
ATOM     11  N   UNL     1      60.220  62.333  66.796  0.00  0.00    +0.000 NA
ATOM     12  C   UNL     1      60.496  62.824  67.399  0.00  0.00    +0.000 A 
ATOM     13  N   UNL     1      60.090  63.016  68.091  0.00  0.00    +0.000 NA
ATOM     14  C   UNL     1      60.570  63.520  68.536  0.00  0.00    +0.000 A 
ATOM     15  C   UNL     1      61.272  63.638  68.119  0.00  0.00    +0.000 A 
ATOM     16  S   UNL     1      61.226  63.208  67.416  0.00  0.00    +0.000 S 
ENDROOT
TORSDOF 0
ENDMDL
MODEL 2
REMARK VINA RESULT:    -8.118      1.022      3.427
REMARK INTER + INTRA:          -8.118
REMARK INTER:                  -8.118
REMARK INTRA:                   0.000
REMARK UNBOUND:                 0.000
ROOT
REMARK  Name = sulfathiazole
REMARK                            x       y       z     vdW  Elec       q    Type
REMARK                         _______ _______ _______ _____ _____    ______ ____
ATOM      1  N   UNL     1      60.476  63.487  68.727  0.00  0.00    +0.000 NA
ATOM      2  C   UNL     1      60.504  63.115  67.991  0.00  0.00    +0.000 A 
ATOM      3  C   UNL     1      59.850  62.695  67.715  0.00  0.00    +0.000 A 
ATOM      4  C   UNL     1      59.878  62.323  66.980  0.00  0.00    +0.000 A 
ATOM      5  C   UNL     1      60.562  62.371  66.520  0.00  0.00    +0.000 A 
ATOM      6  C   UNL     1      61.217  62.791  66.796  0.00  0.00    +0.000 A 
ATOM      7  C   UNL     1      61.187  63.163  67.532  0.00  0.00    +0.000 A 
ATOM      8  S   UNL     1      60.591  61.999  65.784  0.00  0.00    +0.000 S 
ATOM      9  O   UNL     1      61.363  62.269  65.678  0.00  0.00    +0.000 OA
ATOM     10  O   UNL     1      59.818  61.729  65.890  0.00  0.00    +0.000 OA
ATOM     11  N   UNL     1      60.619  61.627  65.048  0.00  0.00    +0.000 NA
ATOM     12  C   UNL     1      61.303  61.674  64.588  0.00  0.00    +0.000 A 
ATOM     13  N   UNL     1      61.412  61.333  63.846  0.00  0.00    +0.000 NA
ATOM     14  C   UNL     1      62.174  61.520  63.589  0.00  0.00    +0.000 A 
ATOM     15  C   UNL     1      62.535  61.977  64.173  0.00  0.00    +0.000 A 
ATOM     16  S   UNL     1      61.997  62.073  64.791  0.00  0.00    +0.000 S 
ENDROOT
TORSDOF 0
ENDMDL
MODEL 3
REMARK VINA RESULT:    -7.635      5.488      7.031
REMARK INTER + INTRA:          -7.635
REMARK INTER:                  -7.635
REMARK INTRA:                   0.000
REMARK UNBOUND:                 0.000
ROOT
REMARK  Name = sulfathiazole
REMARK                            x       y       z     vdW  Elec       q    Type
REMARK                         _______ _______ _______ _____ _____    ______ ____
ATOM      1  N   UNL     1      66.335  67.831  69.753  0.00  0.00    +0.000 NA
ATOM      2  C   UNL     1      65.765  67.357  70.115  0.00  0.00    +0.000 A 
ATOM      3  C   UNL     1      65.604  67.445  70.918  0.00  0.00    +0.000 A 
ATOM      4  C   UNL     1      65.034  66.971  71.280  0.00  0.00    +0.000 A 
ATOM      5  C   UNL     1      64.624  66.408  70.837  0.00  0.00    +0.000 A 
ATOM      6  C   UNL     1      64.785  66.320  70.032  0.00  0.00    +0.000 A 
ATOM      7  C   UNL     1      65.355  66.795  69.671  0.00  0.00    +0.000 A 
ATOM      8  S   UNL     1      64.054  65.934  71.197  0.00  0.00    +0.000 S 
ATOM      9  O   UNL     1      63.910  65.558  70.478  0.00  0.00    +0.000 OA
ATOM     10  O   UNL     1      64.198  66.310  71.918  0.00  0.00    +0.000 OA
ATOM     11  N   UNL     1      63.484  65.460  71.559  0.00  0.00    +0.000 NA
ATOM     12  C   UNL     1      63.074  64.897  71.116  0.00  0.00    +0.000 A 
ATOM     13  N   UNL     1      62.492  64.386  71.399  0.00  0.00    +0.000 NA
ATOM     14  C   UNL     1      62.232  63.920  70.769  0.00  0.00    +0.000 A 
ATOM     15  C   UNL     1      62.655  64.143  70.096  0.00  0.00    +0.000 A 
ATOM     16  S   UNL     1      63.175  64.747  70.310  0.00  0.00    +0.000 S 
ENDROOT
TORSDOF 0
ENDMDL
MODEL 4
REMARK VINA RESULT:    -7.373      5.862      6.752
REMARK INTER + INTRA:          -7.373
REMARK INTER:                  -7.373
REMARK INTRA:                   0.000
REMARK UNBOUND:                 0.000
ROOT
REMARK  Name = sulfathiazole
REMARK                            x       y       z     vdW  Elec       q    Type
REMARK                         _______ _______ _______ _____ _____    ______ ____
ATOM      1  N   UNL     1      61.016  61.601  70.951  0.00  0.00    +0.000 NA
ATOM      2  C   UNL     1      60.932  62.319  71.350  0.00  0.00    +0.000 A 
ATOM      3  C   UNL     1      61.540  62.597  71.832  0.00  0.00    +0.000 A 
ATOM      4  C   UNL     1      61.456  63.314  72.231  0.00  0.00    +0.000 A 
ATOM      5  C   UNL     1      60.762  63.753  72.147  0.00  0.00    +0.000 A 
ATOM      6  C   UNL     1      60.153  63.475  71.664  0.00  0.00    +0.000 A 
ATOM      7  C   UNL     1      60.238  62.758  71.266  0.00  0.00    +0.000 A 
ATOM      8  S   UNL     1      60.677  64.471  72.545  0.00  0.00    +0.000 S 
ATOM      9  O   UNL     1      59.926  64.564  72.219  0.00  0.00    +0.000 OA
ATOM     10  O   UNL     1      61.429  64.378  72.873  0.00  0.00    +0.000 OA
ATOM     11  N   UNL     1      60.593  65.188  72.944  0.00  0.00    +0.000 NA
ATOM     12  C   UNL     1      59.899  65.627  72.861  0.00  0.00    +0.000 A 
ATOM     13  N   UNL     1      59.736  66.350  73.222  0.00  0.00    +0.000 NA
ATOM     14  C   UNL     1      58.983  66.590  72.986  0.00  0.00    +0.000 A 
ATOM     15  C   UNL     1      58.680  66.015  72.477  0.00  0.00    +0.000 A 
ATOM     16  S   UNL     1      59.247  65.420  72.400  0.00  0.00    +0.000 S 
ENDROOT
TORSDOF 0
ENDMDL
MODEL 5
REMARK VINA RESULT:    -7.326      2.156      3.014
REMARK INTER + INTRA:          -7.326
REMARK INTER:                  -7.326
REMARK INTRA:                   0.000
REMARK UNBOUND:                 0.000
ROOT
REMARK  Name = sulfathiazole
REMARK                            x       y       z     vdW  Elec       q    Type
REMARK                         _______ _______ _______ _____ _____    ______ ____
ATOM      1  N   UNL     1      59.449  62.000  66.089  0.00  0.00    +0.000 NA
ATOM      2  C   UNL     1      59.945  62.335  66.658  0.00  0.00    +0.000 A 
ATOM      3  C   UNL     1      60.682  62.632  66.439  0.00  0.00    +0.000 A 
ATOM      4  C   UNL     1      61.178  62.967  67.008  0.00  0.00    +0.000 A 
ATOM      5  C   UNL     1      60.935  63.003  67.796  0.00  0.00    +0.000 A 
ATOM      6  C   UNL     1      60.197  62.705  68.015  0.00  0.00    +0.000 A 
ATOM      7  C   UNL     1      59.703  62.371  67.445  0.00  0.00    +0.000 A 
ATOM      8  S   UNL     1      61.430  63.337  68.365  0.00  0.00    +0.000 S 
ATOM      9  O   UNL     1      60.865  63.186  68.946  0.00  0.00    +0.000 OA
ATOM     10  O   UNL     1      61.996  63.489  67.783  0.00  0.00    +0.000 OA
ATOM     11  N   UNL     1      61.926  63.672  68.933  0.00  0.00    +0.000 NA
ATOM     12  C   UNL     1      61.684  63.708  69.721  0.00  0.00    +0.000 A 
ATOM     13  N   UNL     1      62.117  64.025  70.348  0.00  0.00    +0.000 NA
ATOM     14  C   UNL     1      61.666  63.946  71.035  0.00  0.00    +0.000 A 
ATOM     15  C   UNL     1      60.954  63.581  70.833  0.00  0.00    +0.000 A 
ATOM     16  S   UNL     1      60.965  63.434  70.021  0.00  0.00    +0.000 S 
ENDROOT
TORSDOF 0
ENDMDL
MODEL 6
REMARK VINA RESULT:    -7.235      5.346      6.014
REMARK INTER + INTRA:          -7.235
REMARK INTER:                  -7.235
REMARK INTRA:                   0.000
REMARK UNBOUND:                 0.000
ROOT
REMARK  Name = sulfathiazole
REMARK                            x       y       z     vdW  Elec       q    Type
REMARK                         _______ _______ _______ _____ _____    ______ ____
ATOM      1  N   UNL     1      65.375  66.866  69.975  0.00  0.00    +0.000 NA
ATOM      2  C   UNL     1      64.822  66.263  70.076  0.00  0.00    +0.000 A 
ATOM      3  C   UNL     1      64.690  65.718  69.472  0.00  0.00    +0.000 A 
ATOM      4  C   UNL     1      64.137  65.114  69.573  0.00  0.00    +0.000 A 
ATOM      5  C   UNL     1      63.715  65.056  70.280  0.00  0.00    +0.000 A 
ATOM      6  C   UNL     1      63.847  65.602  70.885  0.00  0.00    +0.000 A 
ATOM      7  C   UNL     1      64.400  66.205  70.783  0.00  0.00    +0.000 A 
ATOM      8  S   UNL     1      63.162  64.453  70.382  0.00  0.00    +0.000 S 
ATOM      9  O   UNL     1      62.994  64.734  71.139  0.00  0.00    +0.000 OA
ATOM     10  O   UNL     1      63.329  64.171  69.624  0.00  0.00    +0.000 OA
ATOM     11  N   UNL     1      62.608  63.849  70.483  0.00  0.00    +0.000 NA
ATOM     12  C   UNL     1      62.187  63.791  71.190  0.00  0.00    +0.000 A 
ATOM     13  N   UNL     1      61.619  63.221  71.371  0.00  0.00    +0.000 NA
ATOM     14  C   UNL     1      61.340  63.371  72.133  0.00  0.00    +0.000 A 
ATOM     15  C   UNL     1      61.736  64.034  72.424  0.00  0.00    +0.000 A 
ATOM     16  S   UNL     1      62.259  64.294  71.841  0.00  0.00    +0.000 S 
ENDROOT
TORSDOF 0
ENDMDL
MODEL 7
REMARK VINA RESULT:    -7.117      5.133      5.853
REMARK INTER + INTRA:          -7.117
REMARK INTER:                  -7.117
REMARK INTRA:                   0.000
REMARK UNBOUND:                 0.000
ROOT
REMARK  Name = sulfathiazole
REMARK                            x       y       z     vdW  Elec       q    Type
REMARK                         _______ _______ _______ _____ _____    ______ ____
ATOM      1  N   UNL     1      61.007  61.840  71.318  0.00  0.00    +0.000 NA
ATOM      2  C   UNL     1      60.725  62.614  71.262  0.00  0.00    +0.000 A 
ATOM      3  C   UNL     1      60.433  62.996  71.932  0.00  0.00    +0.000 A 
ATOM      4  C   UNL     1      60.151  63.769  71.876  0.00  0.00    +0.000 A 
ATOM      5  C   UNL     1      60.161  64.160  71.150  0.00  0.00    +0.000 A 
ATOM      6  C   UNL     1      60.454  63.778  70.479  0.00  0.00    +0.000 A 
ATOM      7  C   UNL     1      60.735  63.005  70.536  0.00  0.00    +0.000 A 
ATOM      8  S   UNL     1      59.880  64.933  71.093  0.00  0.00    +0.000 S 
ATOM      9  O   UNL     1      60.054  64.939  70.287  0.00  0.00    +0.000 OA
ATOM     10  O   UNL     1      59.705  64.929  71.900  0.00  0.00    +0.000 OA
ATOM     11  N   UNL     1      59.598  65.707  71.037  0.00  0.00    +0.000 NA
ATOM     12  C   UNL     1      59.608  66.098  70.311  0.00  0.00    +0.000 A 
ATOM     13  N   UNL     1      59.346  66.867  70.170  0.00  0.00    +0.000 NA
ATOM     14  C   UNL     1      59.458  67.033  69.370  0.00  0.00    +0.000 A 
ATOM     15  C   UNL     1      59.789  66.366  69.015  0.00  0.00    +0.000 A 
ATOM     16  S   UNL     1      59.882  65.787  69.597  0.00  0.00    +0.000 S 
ENDROOT
TORSDOF 0
ENDMDL
MODEL 8
REMARK VINA RESULT:    -6.969      5.781      7.099
REMARK INTER + INTRA:          -6.969
REMARK INTER:                  -6.969
REMARK INTRA:                   0.000
REMARK UNBOUND:                 0.000
ROOT
REMARK  Name = sulfathiazole
REMARK                            x       y       z     vdW  Elec       q    Type
REMARK                         _______ _______ _______ _____ _____    ______ ____
ATOM      1  N   UNL     1      61.853  63.596  70.687  0.00  0.00    +0.000 NA
ATOM      2  C   UNL     1      62.367  64.219  70.856  0.00  0.00    +0.000 A 
ATOM      3  C   UNL     1      62.316  64.610  71.580  0.00  0.00    +0.000 A 
ATOM      4  C   UNL     1      62.830  65.234  71.750  0.00  0.00    +0.000 A 
ATOM      5  C   UNL     1      63.395  65.465  71.195  0.00  0.00    +0.000 A 
ATOM      6  C   UNL     1      63.446  65.073  70.470  0.00  0.00    +0.000 A 
ATOM      7  C   UNL     1      62.932  64.450  70.302  0.00  0.00    +0.000 A 
ATOM      8  S   UNL     1      63.909  66.087  71.364  0.00  0.00    +0.000 S 
ATOM      9  O   UNL     1      64.264  65.995  70.626  0.00  0.00    +0.000 OA
ATOM     10  O   UNL     1      63.553  66.180  72.103  0.00  0.00    +0.000 OA
ATOM     11  N   UNL     1      64.422  66.711  71.534  0.00  0.00    +0.000 NA
ATOM     12  C   UNL     1      64.987  66.942  70.979  0.00  0.00    +0.000 A 
ATOM     13  N   UNL     1      65.535  67.551  71.069  0.00  0.00    +0.000 NA
ATOM     14  C   UNL     1      65.990  67.590  70.382  0.00  0.00    +0.000 A 
ATOM     15  C   UNL     1      65.723  67.004  69.866  0.00  0.00    +0.000 A 
ATOM     16  S   UNL     1      65.103  66.603  70.235  0.00  0.00    +0.000 S 
ENDROOT
TORSDOF 0
ENDMDL
MODEL 9
REMARK VINA RESULT:    -6.961      3.041      4.130
REMARK INTER + INTRA:          -6.961
REMARK INTER:                  -6.961
REMARK INTRA:                   0.000
REMARK UNBOUND:                 0.000
ROOT
REMARK  Name = sulfathiazole
REMARK                            x       y       z     vdW  Elec       q    Type
REMARK                         _______ _______ _______ _____ _____    ______ ____
ATOM      1  N   UNL     1      60.978  61.938  67.375  0.00  0.00    +0.000 NA
ATOM      2  C   UNL     1      60.760  62.503  67.937  0.00  0.00    +0.000 A 
ATOM      3  C   UNL     1      60.539  63.259  67.697  0.00  0.00    +0.000 A 
ATOM      4  C   UNL     1      60.321  63.824  68.258  0.00  0.00    +0.000 A 
ATOM      5  C   UNL     1      60.326  63.630  69.060  0.00  0.00    +0.000 A 
ATOM      6  C   UNL     1      60.548  62.872  69.301  0.00  0.00    +0.000 A 
ATOM      7  C   UNL     1      60.765  62.309  68.739  0.00  0.00    +0.000 A 
ATOM      8  S   UNL     1      60.109  64.193  69.623  0.00  0.00    +0.000 S 
ATOM      9  O   UNL     1      60.239  63.645  70.224  0.00  0.00    +0.000 OA
ATOM     10  O   UNL     1      59.978  64.743  69.020  0.00  0.00    +0.000 OA
ATOM     11  N   UNL     1      59.891  64.758  70.184  0.00  0.00    +0.000 NA
ATOM     12  C   UNL     1      59.896  64.564  70.986  0.00  0.00    +0.000 A 
ATOM     13  N   UNL     1      59.693  65.067  71.607  0.00  0.00    +0.000 NA
ATOM     14  C   UNL     1      59.776  64.647  72.313  0.00  0.00    +0.000 A 
ATOM     15  C   UNL     1      60.029  63.884  72.127  0.00  0.00    +0.000 A 
ATOM     16  S   UNL     1      60.104  63.832  71.307  0.00  0.00    +0.000 S 
ENDROOT
TORSDOF 0
ENDMDL
