MODEL 1
REMARK VINA RESULT:   -10.119      0.000      0.000
REMARK INTER + INTRA:         -10.119
REMARK INTER:                 -10.119
REMARK INTRA:                   0.000
REMARK UNBOUND:                 0.000
ROOT
REMARK  Name = sulmazole
REMARK                            x       y       z     vdW  Elec       q    Type
REMARK                         _______ _______ _______ _____ _____    ______ ____
ATOM      1  C   UNL     1      61.789  64.381  68.542  0.00  0.00    +0.000 C 
ATOM      2  O   UNL     1      61.609  63.687  68.133  0.00  0.00    +0.000 OA
ATOM      3  C   UNL     1      61.212  63.074  68.516  0.00  0.00    +0.000 A 
ATOM      4  C   UNL     1      61.032  62.380  68.107  0.00  0.00    +0.000 A 
ATOM      5  C   UNL     1      60.636  61.767  68.490  0.00  0.00    +0.000 A 
ATOM      6  C   UNL     1      60.419  61.846  69.283  0.00  0.00    +0.000 A 
ATOM      7  C   UNL     1      60.600  62.539  69.691  0.00  0.00    +0.000 A 
ATOM      8  C   UNL     1      60.996  63.153  69.308  0.00  0.00    +0.000 A 
ATOM      9  S   UNL     1      60.383  62.619  70.483  0.00  0.00    +0.000 S 
ATOM     10  C   UNL     1      60.564  63.313  70.893  0.00  0.00    +0.000 C 
ATOM     11  O   UNL     1      59.987  62.006  70.867  0.00  0.00    +0.000 OA
ATOM     12  C   UNL     1      61.248  62.300  67.315  0.00  0.00    +0.000 C 
ATOM     13  N   UNL     1      61.106  61.643  66.837  0.00  0.00    +0.000 NA
ATOM     14  C   UNL     1      61.415  61.801  66.089  0.00  0.00    +0.000 C 
ATOM     15  C   UNL     1      61.747  62.555  66.104  0.00  0.00    +0.000 C 
ATOM     16  N   UNL     1      61.645  62.864  66.861  0.00  0.00    +0.000 NA
ATOM     17  N   UNL     1      62.101  62.863  65.424  0.00  0.00    +0.000 NA
ATOM     18  C   UNL     1      62.122  62.417  64.731  0.00  0.00    +0.000 C 
ATOM     19  C   UNL     1      61.789  61.663  64.716  0.00  0.00    +0.000 C 
ATOM     20  C   UNL     1      61.435  61.354  65.395  0.00  0.00    +0.000 C 
ENDROOT
TORSDOF 0
ENDMDL
MODEL 2
REMARK VINA RESULT:    -9.197      1.397      2.008
REMARK INTER + INTRA:          -9.197
REMARK INTER:                  -9.197
REMARK INTRA:                   0.000
REMARK UNBOUND:                 0.000
ROOT
REMARK  Name = sulmazole
REMARK                            x       y       z     vdW  Elec       q    Type
REMARK                         _______ _______ _______ _____ _____    ______ ____
ATOM      1  C   UNL     1      62.757  64.359  69.757  0.00  0.00    +0.000 C 
ATOM      2  O   UNL     1      62.133  63.879  69.508  0.00  0.00    +0.000 OA
ATOM      3  C   UNL     1      61.632  63.535  70.065  0.00  0.00    +0.000 A 
ATOM      4  C   UNL     1      61.008  63.054  69.817  0.00  0.00    +0.000 A 
ATOM      5  C   UNL     1      60.506  62.710  70.374  0.00  0.00    +0.000 A 
ATOM      6  C   UNL     1      60.627  62.846  71.178  0.00  0.00    +0.000 A 
ATOM      7  C   UNL     1      61.250  63.326  71.426  0.00  0.00    +0.000 A 
ATOM      8  C   UNL     1      61.753  63.670  70.870  0.00  0.00    +0.000 A 
ATOM      9  S   UNL     1      61.371  63.461  72.231  0.00  0.00    +0.000 S 
ATOM     10  C   UNL     1      61.995  63.942  72.479  0.00  0.00    +0.000 C 
ATOM     11  O   UNL     1      60.869  63.117  72.788  0.00  0.00    +0.000 OA
ATOM     12  C   UNL     1      60.886  62.919  69.012  0.00  0.00    +0.000 C 
ATOM     13  N   UNL     1      60.290  62.454  68.683  0.00  0.00    +0.000 NA
ATOM     14  C   UNL     1      60.375  62.472  67.863  0.00  0.00    +0.000 C 
ATOM     15  C   UNL     1      61.025  62.948  67.685  0.00  0.00    +0.000 C 
ATOM     16  N   UNL     1      61.342  63.224  68.395  0.00  0.00    +0.000 NA
ATOM     17  N   UNL     1      61.245  63.068  66.899  0.00  0.00    +0.000 NA
ATOM     18  C   UNL     1      60.816  62.713  66.291  0.00  0.00    +0.000 C 
ATOM     19  C   UNL     1      60.166  62.238  66.469  0.00  0.00    +0.000 C 
ATOM     20  C   UNL     1      59.945  62.117  67.255  0.00  0.00    +0.000 C 
ENDROOT
TORSDOF 0
ENDMDL
MODEL 3
REMARK VINA RESULT:    -9.072      3.226      4.728
REMARK INTER + INTRA:          -9.072
REMARK INTER:                  -9.072
REMARK INTRA:                   0.000
REMARK UNBOUND:                 0.000
ROOT
REMARK  Name = sulmazole
REMARK                            x       y       z     vdW  Elec       q    Type
REMARK                         _______ _______ _______ _____ _____    ______ ____
ATOM      1  C   UNL     1      59.627  66.129  69.654  0.00  0.00    +0.000 C 
ATOM      2  O   UNL     1      59.711  65.465  70.139  0.00  0.00    +0.000 OA
ATOM      3  C   UNL     1      59.565  65.526  70.948  0.00  0.00    +0.000 A 
ATOM      4  C   UNL     1      59.649  64.863  71.433  0.00  0.00    +0.000 A 
ATOM      5  C   UNL     1      59.504  64.924  72.243  0.00  0.00    +0.000 A 
ATOM      6  C   UNL     1      59.275  65.646  72.568  0.00  0.00    +0.000 A 
ATOM      7  C   UNL     1      59.191  66.308  72.084  0.00  0.00    +0.000 A 
ATOM      8  C   UNL     1      59.336  66.249  71.274  0.00  0.00    +0.000 A 
ATOM      9  S   UNL     1      58.962  67.031  72.410  0.00  0.00    +0.000 S 
ATOM     10  C   UNL     1      58.879  67.694  71.925  0.00  0.00    +0.000 C 
ATOM     11  O   UNL     1      58.817  67.092  73.219  0.00  0.00    +0.000 OA
ATOM     12  C   UNL     1      59.878  64.140  71.108  0.00  0.00    +0.000 C 
ATOM     13  N   UNL     1      59.984  63.434  71.520  0.00  0.00    +0.000 NA
ATOM     14  C   UNL     1      60.212  62.855  70.980  0.00  0.00    +0.000 C 
ATOM     15  C   UNL     1      60.248  63.203  70.233  0.00  0.00    +0.000 C 
ATOM     16  N   UNL     1      60.041  63.997  70.311  0.00  0.00    +0.000 NA
ATOM     17  N   UNL     1      60.464  62.750  69.578  0.00  0.00    +0.000 NA
ATOM     18  C   UNL     1      60.645  61.951  69.669  0.00  0.00    +0.000 C 
ATOM     19  C   UNL     1      60.609  61.603  70.416  0.00  0.00    +0.000 C 
ATOM     20  C   UNL     1      60.393  62.054  71.072  0.00  0.00    +0.000 C 
ENDROOT
TORSDOF 0
ENDMDL
MODEL 4
REMARK VINA RESULT:    -9.057      4.521      6.091
REMARK INTER + INTRA:          -9.057
REMARK INTER:                  -9.057
REMARK INTRA:                   0.000
REMARK UNBOUND:                 0.000
ROOT
REMARK  Name = sulmazole
REMARK                            x       y       z     vdW  Elec       q    Type
REMARK                         _______ _______ _______ _____ _____    ______ ____
ATOM      1  C   UNL     1      64.577  64.739  69.446  0.00  0.00    +0.000 C 
ATOM      2  O   UNL     1      64.093  64.852  70.106  0.00  0.00    +0.000 OA
ATOM      3  C   UNL     1      64.194  65.518  70.582  0.00  0.00    +0.000 A 
ATOM      4  C   UNL     1      63.710  65.630  71.242  0.00  0.00    +0.000 A 
ATOM      5  C   UNL     1      63.812  66.296  71.718  0.00  0.00    +0.000 A 
ATOM      6  C   UNL     1      64.396  66.849  71.536  0.00  0.00    +0.000 A 
ATOM      7  C   UNL     1      64.879  66.737  70.877  0.00  0.00    +0.000 A 
ATOM      8  C   UNL     1      64.778  66.071  70.400  0.00  0.00    +0.000 A 
ATOM      9  S   UNL     1      65.463  67.290  70.695  0.00  0.00    +0.000 S 
ATOM     10  C   UNL     1      65.947  67.178  70.035  0.00  0.00    +0.000 C 
ATOM     11  O   UNL     1      65.564  67.956  71.171  0.00  0.00    +0.000 OA
ATOM     12  C   UNL     1      63.126  65.077  71.424  0.00  0.00    +0.000 C 
ATOM     13  N   UNL     1      62.604  65.115  72.061  0.00  0.00    +0.000 NA
ATOM     14  C   UNL     1      62.117  64.450  72.032  0.00  0.00    +0.000 C 
ATOM     15  C   UNL     1      62.338  64.001  71.376  0.00  0.00    +0.000 C 
ATOM     16  N   UNL     1      62.962  64.388  71.000  0.00  0.00    +0.000 NA
ATOM     17  N   UNL     1      61.942  63.297  71.207  0.00  0.00    +0.000 NA
ATOM     18  C   UNL     1      61.327  63.042  71.692  0.00  0.00    +0.000 C 
ATOM     19  C   UNL     1      61.106  63.492  72.348  0.00  0.00    +0.000 C 
ATOM     20  C   UNL     1      61.501  64.195  72.518  0.00  0.00    +0.000 C 
ENDROOT
TORSDOF 0
ENDMDL
MODEL 5
REMARK VINA RESULT:    -8.968      2.187      4.332
REMARK INTER + INTRA:          -8.968
REMARK INTER:                  -8.968
REMARK INTRA:                   0.000
REMARK UNBOUND:                 0.000
ROOT
REMARK  Name = sulmazole
REMARK                            x       y       z     vdW  Elec       q    Type
REMARK                         _______ _______ _______ _____ _____    ______ ____
ATOM      1  C   UNL     1      62.384  64.271  68.337  0.00  0.00    +0.000 C 
ATOM      2  O   UNL     1      61.962  63.840  68.900  0.00  0.00    +0.000 OA
ATOM      3  C   UNL     1      61.401  63.285  68.658  0.00  0.00    +0.000 A 
ATOM      4  C   UNL     1      60.979  62.854  69.222  0.00  0.00    +0.000 A 
ATOM      5  C   UNL     1      60.418  62.300  68.980  0.00  0.00    +0.000 A 
ATOM      6  C   UNL     1      60.279  62.176  68.176  0.00  0.00    +0.000 A 
ATOM      7  C   UNL     1      60.701  62.607  67.614  0.00  0.00    +0.000 A 
ATOM      8  C   UNL     1      61.262  63.162  67.855  0.00  0.00    +0.000 A 
ATOM      9  S   UNL     1      60.562  62.484  66.810  0.00  0.00    +0.000 S 
ATOM     10  C   UNL     1      60.984  62.915  66.247  0.00  0.00    +0.000 C 
ATOM     11  O   UNL     1      60.001  61.929  66.568  0.00  0.00    +0.000 OA
ATOM     12  C   UNL     1      61.118  62.977  70.025  0.00  0.00    +0.000 C 
ATOM     13  N   UNL     1      60.740  62.590  70.648  0.00  0.00    +0.000 NA
ATOM     14  C   UNL     1      61.048  62.883  71.354  0.00  0.00    +0.000 C 
ATOM     15  C   UNL     1      61.616  63.452  71.169  0.00  0.00    +0.000 C 
ATOM     16  N   UNL     1      61.659  63.511  70.348  0.00  0.00    +0.000 NA
ATOM     17  N   UNL     1      62.020  63.843  71.773  0.00  0.00    +0.000 NA
ATOM     18  C   UNL     1      61.856  63.666  72.561  0.00  0.00    +0.000 C 
ATOM     19  C   UNL     1      61.289  63.097  72.747  0.00  0.00    +0.000 C 
ATOM     20  C   UNL     1      60.884  62.705  72.144  0.00  0.00    +0.000 C 
ENDROOT
TORSDOF 0
ENDMDL
MODEL 6
REMARK VINA RESULT:    -8.946      3.932      5.613
REMARK INTER + INTRA:          -8.946
REMARK INTER:                  -8.946
REMARK INTRA:                   0.000
REMARK UNBOUND:                 0.000
ROOT
REMARK  Name = sulmazole
REMARK                            x       y       z     vdW  Elec       q    Type
REMARK                         _______ _______ _______ _____ _____    ______ ____
ATOM      1  C   UNL     1      62.760  64.257  69.542  0.00  0.00    +0.000 C 
ATOM      2  O   UNL     1      63.086  64.806  70.065  0.00  0.00    +0.000 OA
ATOM      3  C   UNL     1      62.775  64.886  70.825  0.00  0.00    +0.000 A 
ATOM      4  C   UNL     1      63.102  65.435  71.348  0.00  0.00    +0.000 A 
ATOM      5  C   UNL     1      62.791  65.515  72.108  0.00  0.00    +0.000 A 
ATOM      6  C   UNL     1      62.154  65.047  72.345  0.00  0.00    +0.000 A 
ATOM      7  C   UNL     1      61.828  64.499  71.822  0.00  0.00    +0.000 A 
ATOM      8  C   UNL     1      62.138  64.418  71.062  0.00  0.00    +0.000 A 
ATOM      9  S   UNL     1      61.191  64.032  72.059  0.00  0.00    +0.000 S 
ATOM     10  C   UNL     1      60.864  63.483  71.536  0.00  0.00    +0.000 C 
ATOM     11  O   UNL     1      60.880  64.112  72.819  0.00  0.00    +0.000 OA
ATOM     12  C   UNL     1      63.739  65.902  71.111  0.00  0.00    +0.000 C 
ATOM     13  N   UNL     1      64.121  66.471  71.571  0.00  0.00    +0.000 NA
ATOM     14  C   UNL     1      64.723  66.803  71.117  0.00  0.00    +0.000 C 
ATOM     15  C   UNL     1      64.714  66.440  70.376  0.00  0.00    +0.000 C 
ATOM     16  N   UNL     1      64.106  65.883  70.372  0.00  0.00    +0.000 NA
ATOM     17  N   UNL     1      65.262  66.664  69.801  0.00  0.00    +0.000 NA
ATOM     18  C   UNL     1      65.818  67.250  69.966  0.00  0.00    +0.000 C 
ATOM     19  C   UNL     1      65.827  67.613  70.706  0.00  0.00    +0.000 C 
ATOM     20  C   UNL     1      65.280  67.390  71.282  0.00  0.00    +0.000 C 
ENDROOT
TORSDOF 0
ENDMDL
MODEL 7
REMARK VINA RESULT:    -8.777      3.371      5.410
REMARK INTER + INTRA:          -8.777
REMARK INTER:                  -8.777
REMARK INTRA:                   0.000
REMARK UNBOUND:                 0.000
ROOT
REMARK  Name = sulmazole
REMARK                            x       y       z     vdW  Elec       q    Type
REMARK                         _______ _______ _______ _____ _____    ______ ____
ATOM      1  C   UNL     1      60.441  64.582  69.009  0.00  0.00    +0.000 C 
ATOM      2  O   UNL     1      60.175  64.729  69.777  0.00  0.00    +0.000 OA
ATOM      3  C   UNL     1      60.134  64.113  70.324  0.00  0.00    +0.000 A 
ATOM      4  C   UNL     1      59.868  64.260  71.092  0.00  0.00    +0.000 A 
ATOM      5  C   UNL     1      59.828  63.644  71.639  0.00  0.00    +0.000 A 
ATOM      6  C   UNL     1      60.053  62.882  71.419  0.00  0.00    +0.000 A 
ATOM      7  C   UNL     1      60.319  62.735  70.652  0.00  0.00    +0.000 A 
ATOM      8  C   UNL     1      60.360  63.351  70.104  0.00  0.00    +0.000 A 
ATOM      9  S   UNL     1      60.544  61.972  70.433  0.00  0.00    +0.000 S 
ATOM     10  C   UNL     1      60.810  61.825  69.665  0.00  0.00    +0.000 C 
ATOM     11  O   UNL     1      60.504  61.356  70.980  0.00  0.00    +0.000 OA
ATOM     12  C   UNL     1      59.643  65.023  71.311  0.00  0.00    +0.000 C 
ATOM     13  N   UNL     1      59.368  65.253  72.054  0.00  0.00    +0.000 NA
ATOM     14  C   UNL     1      59.209  66.061  72.028  0.00  0.00    +0.000 C 
ATOM     15  C   UNL     1      59.385  66.332  71.269  0.00  0.00    +0.000 C 
ATOM     16  N   UNL     1      59.654  65.691  70.826  0.00  0.00    +0.000 NA
ATOM     17  N   UNL     1      59.279  67.128  71.080  0.00  0.00    +0.000 NA
ATOM     18  C   UNL     1      58.995  67.653  71.650  0.00  0.00    +0.000 C 
ATOM     19  C   UNL     1      58.819  67.382  72.408  0.00  0.00    +0.000 C 
ATOM     20  C   UNL     1      58.925  66.586  72.598  0.00  0.00    +0.000 C 
ENDROOT
TORSDOF 0
ENDMDL
MODEL 8
REMARK VINA RESULT:    -8.712      2.371      4.735
REMARK INTER + INTRA:          -8.712
REMARK INTER:                  -8.712
REMARK INTRA:                   0.000
REMARK UNBOUND:                 0.000
ROOT
REMARK  Name = sulmazole
REMARK                            x       y       z     vdW  Elec       q    Type
REMARK                         _______ _______ _______ _____ _____    ______ ____
ATOM      1  C   UNL     1      60.514  61.648  69.611  0.00  0.00    +0.000 C 
ATOM      2  O   UNL     1      60.416  62.467  69.644  0.00  0.00    +0.000 OA
ATOM      3  C   UNL     1      60.571  62.928  68.977  0.00  0.00    +0.000 A 
ATOM      4  C   UNL     1      60.473  63.747  69.009  0.00  0.00    +0.000 A 
ATOM      5  C   UNL     1      60.627  64.207  68.342  0.00  0.00    +0.000 A 
ATOM      6  C   UNL     1      60.879  63.849  67.643  0.00  0.00    +0.000 A 
ATOM      7  C   UNL     1      60.976  63.031  67.610  0.00  0.00    +0.000 A 
ATOM      8  C   UNL     1      60.822  62.570  68.277  0.00  0.00    +0.000 A 
ATOM      9  S   UNL     1      61.227  62.673  66.911  0.00  0.00    +0.000 S 
ATOM     10  C   UNL     1      61.325  61.854  66.878  0.00  0.00    +0.000 C 
ATOM     11  O   UNL     1      61.381  63.133  66.244  0.00  0.00    +0.000 OA
ATOM     12  C   UNL     1      60.222  64.105  69.709  0.00  0.00    +0.000 C 
ATOM     13  N   UNL     1      60.100  64.912  69.824  0.00  0.00    +0.000 NA
ATOM     14  C   UNL     1      59.851  65.024  70.602  0.00  0.00    +0.000 C 
ATOM     15  C   UNL     1      59.819  64.285  70.968  0.00  0.00    +0.000 C 
ATOM     16  N   UNL     1      60.047  63.717  70.417  0.00  0.00    +0.000 NA
ATOM     17  N   UNL     1      59.584  64.227  71.757  0.00  0.00    +0.000 NA
ATOM     18  C   UNL     1      59.383  64.905  72.180  0.00  0.00    +0.000 C 
ATOM     19  C   UNL     1      59.416  65.644  71.814  0.00  0.00    +0.000 C 
ATOM     20  C   UNL     1      59.650  65.704  71.025  0.00  0.00    +0.000 C 
ENDROOT
TORSDOF 0
ENDMDL
MODEL 9
REMARK VINA RESULT:    -8.632      3.280      4.925
REMARK INTER + INTRA:          -8.632
REMARK INTER:                  -8.632
REMARK INTRA:                   0.000
REMARK UNBOUND:                 0.000
ROOT
REMARK  Name = sulmazole
REMARK                            x       y       z     vdW  Elec       q    Type
REMARK                         _______ _______ _______ _____ _____    ______ ____
ATOM      1  C   UNL     1      62.042  64.179  72.119  0.00  0.00    +0.000 C 
ATOM      2  O   UNL     1      62.492  64.473  71.492  0.00  0.00    +0.000 OA
ATOM      3  C   UNL     1      62.337  64.221  70.722  0.00  0.00    +0.000 A 
ATOM      4  C   UNL     1      62.787  64.514  70.094  0.00  0.00    +0.000 A 
ATOM      5  C   UNL     1      62.632  64.263  69.324  0.00  0.00    +0.000 A 
ATOM      6  C   UNL     1      62.029  63.719  69.180  0.00  0.00    +0.000 A 
ATOM      7  C   UNL     1      61.580  63.426  69.807  0.00  0.00    +0.000 A 
ATOM      8  C   UNL     1      61.734  63.677  70.578  0.00  0.00    +0.000 A 
ATOM      9  S   UNL     1      60.977  62.882  69.663  0.00  0.00    +0.000 S 
ATOM     10  C   UNL     1      60.527  62.589  70.290  0.00  0.00    +0.000 C 
ATOM     11  O   UNL     1      60.822  62.631  68.893  0.00  0.00    +0.000 OA
ATOM     12  C   UNL     1      63.390  65.058  70.238  0.00  0.00    +0.000 C 
ATOM     13  N   UNL     1      63.883  65.398  69.670  0.00  0.00    +0.000 NA
ATOM     14  C   UNL     1      64.403  65.907  70.056  0.00  0.00    +0.000 C 
ATOM     15  C   UNL     1      64.233  65.883  70.863  0.00  0.00    +0.000 C 
ATOM     16  N   UNL     1      63.607  65.359  70.976  0.00  0.00    +0.000 NA
ATOM     17  N   UNL     1      64.671  66.342  71.390  0.00  0.00    +0.000 NA
ATOM     18  C   UNL     1      65.278  66.825  71.112  0.00  0.00    +0.000 C 
ATOM     19  C   UNL     1      65.448  66.850  70.305  0.00  0.00    +0.000 C 
ATOM     20  C   UNL     1      65.012  66.391  69.777  0.00  0.00    +0.000 C 
ENDROOT
TORSDOF 0
ENDMDL
