MODEL 1
REMARK VINA RESULT:   -19.624      0.000      0.000
REMARK INTER + INTRA:         -19.624
REMARK INTER:                 -19.624
REMARK INTRA:                   0.000
REMARK UNBOUND:                 0.000
ROOT
REMARK  Name = suramin
REMARK                            x       y       z     vdW  Elec       q    Type
REMARK                         _______ _______ _______ _____ _____    ______ ____
ATOM      1  C   UNL     1      61.984  63.884  54.709  0.00  0.00    +0.000 C 
ATOM      2  C   UNL     1      62.045  63.504  53.978  0.00  0.00    +0.000 A 
ATOM      3  C   UNL     1      62.308  62.724  53.939  0.00  0.00    +0.000 A 
ATOM      4  C   UNL     1      62.369  62.345  53.209  0.00  0.00    +0.000 A 
ATOM      5  C   UNL     1      62.168  62.746  52.517  0.00  0.00    +0.000 A 
ATOM      6  C   UNL     1      61.905  63.528  52.556  0.00  0.00    +0.000 A 
ATOM      7  C   UNL     1      61.843  63.907  53.286  0.00  0.00    +0.000 A 
ATOM      8  N   UNL     1      61.580  64.688  53.324  0.00  0.00    +0.000 NA
ATOM      9  C   UNL     1      61.379  65.090  52.633  0.00  0.00    +0.000 C 
ATOM     10  O   UNL     1      61.440  64.711  51.903  0.00  0.00    +0.000 OA
ATOM     11  C   UNL     1      61.116  65.871  52.672  0.00  0.00    +0.000 A 
ATOM     12  C   UNL     1      61.055  66.250  53.403  0.00  0.00    +0.000 A 
ATOM     13  C   UNL     1      60.792  67.031  53.441  0.00  0.00    +0.000 A 
ATOM     14  C   UNL     1      60.590  67.433  52.750  0.00  0.00    +0.000 A 
ATOM     15  C   UNL     1      60.651  67.054  52.019  0.00  0.00    +0.000 A 
ATOM     16  N   UNL     1      60.449  67.456  51.327  0.00  0.00    +0.000 NA
ATOM     17  C   UNL     1      60.187  68.237  51.366  0.00  0.00    +0.000 C 
ATOM     18  O   UNL     1      60.125  68.616  52.097  0.00  0.00    +0.000 OA
ATOM     19  N   UNL     1      59.985  68.639  50.674  0.00  0.00    +0.000 NA
ATOM     20  C   UNL     1      59.722  69.420  50.712  0.00  0.00    +0.000 A 
ATOM     21  C   UNL     1      59.661  69.799  51.444  0.00  0.00    +0.000 A 
ATOM     22  C   UNL     1      59.398  70.581  51.482  0.00  0.00    +0.000 A 
ATOM     23  C   UNL     1      59.196  70.982  50.791  0.00  0.00    +0.000 A 
ATOM     24  C   UNL     1      59.257  70.603  50.059  0.00  0.00    +0.000 A 
ATOM     25  C   UNL     1      59.520  69.823  50.021  0.00  0.00    +0.000 A 
ATOM     26  C   UNL     1      59.056  71.006  49.368  0.00  0.00    +0.000 C 
ATOM     27  O   UNL     1      59.117  70.627  48.638  0.00  0.00    +0.000 OA
ATOM     28  N   UNL     1      58.793  71.786  49.406  0.00  0.00    +0.000 NA
ATOM     29  C   UNL     1      58.731  72.166  50.138  0.00  0.00    +0.000 A 
ATOM     30  C   UNL     1      58.468  72.947  50.175  0.00  0.00    +0.000 A 
ATOM     31  C   UNL     1      58.267  73.349  49.484  0.00  0.00    +0.000 C 
ATOM     32  C   UNL     1      58.407  73.326  50.906  0.00  0.00    +0.000 A 
ATOM     33  C   UNL     1      58.609  72.924  51.598  0.00  0.00    +0.000 A 
ATOM     34  C   UNL     1      58.872  72.143  51.559  0.00  0.00    +0.000 A 
ATOM     35  C   UNL     1      58.933  71.764  50.828  0.00  0.00    +0.000 A 
ATOM     36  C   UNL     1      59.074  71.741  52.251  0.00  0.00    +0.000 C 
ATOM     37  O   UNL     1      59.337  70.960  52.212  0.00  0.00    +0.000 OA
ATOM     38  N   UNL     1      59.013  72.119  52.980  0.00  0.00    +0.000 NA
ATOM     39  C   UNL     1      58.749  72.901  53.019  0.00  0.00    +0.000 A 
ATOM     40  C   UNL     1      58.548  73.302  52.327  0.00  0.00    +0.000 A 
ATOM     41  C   UNL     1      58.285  74.084  52.366  0.00  0.00    +0.000 A 
ATOM     42  C   UNL     1      58.224  74.463  53.096  0.00  0.00    +0.000 A 
ATOM     43  C   UNL     1      58.425  74.060  53.788  0.00  0.00    +0.000 A 
ATOM     44  C   UNL     1      58.364  74.439  54.518  0.00  0.00    +0.000 A 
ATOM     45  C   UNL     1      58.566  74.038  55.210  0.00  0.00    +0.000 A 
ATOM     46  C   UNL     1      58.829  73.256  55.171  0.00  0.00    +0.000 A 
ATOM     47  C   UNL     1      58.890  72.877  54.441  0.00  0.00    +0.000 A 
ATOM     48  C   UNL     1      58.688  73.280  53.749  0.00  0.00    +0.000 A 
ATOM     49  S   UNL     1      59.153  72.097  54.402  0.00  0.00    +0.000 S 
ATOM     50  O   UNL     1      59.416  71.315  54.364  0.00  0.00    +0.000 OA
ATOM     51  O   UNL     1      59.072  72.109  53.581  0.00  0.00    +0.000 OA
ATOM     52  O   UNL     1      59.234  72.083  55.223  0.00  0.00    +0.000 OA
ATOM     53  S   UNL     1      58.505  74.417  55.940  0.00  0.00    +0.000 S 
ATOM     54  O   UNL     1      58.443  74.796  56.670  0.00  0.00    +0.000 OA
ATOM     55  O   UNL     1      58.236  75.100  55.563  0.00  0.00    +0.000 OA
ATOM     56  O   UNL     1      58.773  73.734  56.317  0.00  0.00    +0.000 OA
ATOM     57  S   UNL     1      57.961  75.243  53.135  0.00  0.00    +0.000 S 
ATOM     58  O   UNL     1      57.698  76.024  53.174  0.00  0.00    +0.000 OA
ATOM     59  O   UNL     1      58.042  75.231  53.956  0.00  0.00    +0.000 OA
ATOM     60  O   UNL     1      57.879  75.257  52.314  0.00  0.00    +0.000 OA
ATOM     61  C   UNL     1      60.914  66.273  51.980  0.00  0.00    +0.000 A 
ATOM     62  C   UNL     1      62.229  62.368  51.788  0.00  0.00    +0.000 C 
ATOM     63  O   UNL     1      62.027  62.770  51.096  0.00  0.00    +0.000 OA
ATOM     64  N   UNL     1      62.492  61.587  51.749  0.00  0.00    +0.000 NA
ATOM     65  C   UNL     1      62.553  61.208  51.018  0.00  0.00    +0.000 A 
ATOM     66  C   UNL     1      62.351  61.610  50.327  0.00  0.00    +0.000 A 
ATOM     67  C   UNL     1      62.413  61.230  49.596  0.00  0.00    +0.000 A 
ATOM     68  C   UNL     1      62.675  60.450  49.558  0.00  0.00    +0.000 A 
ATOM     69  C   UNL     1      62.877  60.048  50.249  0.00  0.00    +0.000 A 
ATOM     70  C   UNL     1      63.140  59.267  50.211  0.00  0.00    +0.000 A 
ATOM     71  C   UNL     1      63.342  58.865  50.902  0.00  0.00    +0.000 A 
ATOM     72  C   UNL     1      63.280  59.245  51.633  0.00  0.00    +0.000 A 
ATOM     73  C   UNL     1      63.018  60.025  51.671  0.00  0.00    +0.000 A 
ATOM     74  C   UNL     1      62.816  60.428  50.980  0.00  0.00    +0.000 A 
ATOM     75  S   UNL     1      62.956  60.404  52.402  0.00  0.00    +0.000 S 
ATOM     76  O   UNL     1      62.895  60.783  53.132  0.00  0.00    +0.000 OA
ATOM     77  O   UNL     1      62.688  61.087  52.025  0.00  0.00    +0.000 OA
ATOM     78  O   UNL     1      63.225  59.721  52.779  0.00  0.00    +0.000 OA
ATOM     79  S   UNL     1      63.605  58.084  50.864  0.00  0.00    +0.000 S 
ATOM     80  O   UNL     1      63.686  58.071  51.685  0.00  0.00    +0.000 OA
ATOM     81  O   UNL     1      63.523  58.097  50.043  0.00  0.00    +0.000 OA
ATOM     82  O   UNL     1      63.867  57.303  50.826  0.00  0.00    +0.000 OA
ATOM     83  S   UNL     1      62.737  60.071  48.828  0.00  0.00    +0.000 S 
ATOM     84  O   UNL     1      63.005  59.388  49.205  0.00  0.00    +0.000 OA
ATOM     85  O   UNL     1      62.468  60.754  48.451  0.00  0.00    +0.000 OA
ATOM     86  O   UNL     1      62.798  59.692  48.098  0.00  0.00    +0.000 OA
ENDROOT
TORSDOF 0
ENDMDL
MODEL 2
REMARK VINA RESULT:   -18.023      0.842      1.103
REMARK INTER + INTRA:         -18.023
REMARK INTER:                 -18.023
REMARK INTRA:                   0.000
REMARK UNBOUND:                 0.000
ROOT
REMARK  Name = suramin
REMARK                            x       y       z     vdW  Elec       q    Type
REMARK                         _______ _______ _______ _____ _____    ______ ____
ATOM      1  C   UNL     1      61.941  64.985  55.244  0.00  0.00    +0.000 C 
ATOM      2  C   UNL     1      62.024  64.510  54.573  0.00  0.00    +0.000 A 
ATOM      3  C   UNL     1      62.320  63.744  54.645  0.00  0.00    +0.000 A 
ATOM      4  C   UNL     1      62.402  63.270  53.975  0.00  0.00    +0.000 A 
ATOM      5  C   UNL     1      62.188  63.561  53.234  0.00  0.00    +0.000 A 
ATOM      6  C   UNL     1      61.891  64.328  53.163  0.00  0.00    +0.000 A 
ATOM      7  C   UNL     1      61.809  64.803  53.832  0.00  0.00    +0.000 A 
ATOM      8  N   UNL     1      61.512  65.569  53.760  0.00  0.00    +0.000 NA
ATOM      9  C   UNL     1      61.298  65.861  53.020  0.00  0.00    +0.000 C 
ATOM     10  O   UNL     1      61.380  65.387  52.350  0.00  0.00    +0.000 OA
ATOM     11  C   UNL     1      61.001  66.627  52.948  0.00  0.00    +0.000 A 
ATOM     12  C   UNL     1      60.919  67.102  53.619  0.00  0.00    +0.000 A 
ATOM     13  C   UNL     1      60.622  67.869  53.547  0.00  0.00    +0.000 A 
ATOM     14  C   UNL     1      60.408  68.161  52.807  0.00  0.00    +0.000 A 
ATOM     15  C   UNL     1      60.490  67.686  52.136  0.00  0.00    +0.000 A 
ATOM     16  N   UNL     1      60.275  67.978  51.395  0.00  0.00    +0.000 NA
ATOM     17  C   UNL     1      59.979  68.744  51.324  0.00  0.00    +0.000 C 
ATOM     18  O   UNL     1      59.896  69.219  51.994  0.00  0.00    +0.000 OA
ATOM     19  N   UNL     1      59.764  69.037  50.582  0.00  0.00    +0.000 NA
ATOM     20  C   UNL     1      59.467  69.803  50.511  0.00  0.00    +0.000 A 
ATOM     21  C   UNL     1      59.385  70.278  51.182  0.00  0.00    +0.000 A 
ATOM     22  C   UNL     1      59.088  71.044  51.110  0.00  0.00    +0.000 A 
ATOM     23  C   UNL     1      58.874  71.336  50.369  0.00  0.00    +0.000 A 
ATOM     24  C   UNL     1      58.956  70.861  49.699  0.00  0.00    +0.000 A 
ATOM     25  C   UNL     1      59.252  70.095  49.770  0.00  0.00    +0.000 A 
ATOM     26  C   UNL     1      58.741  71.154  48.957  0.00  0.00    +0.000 C 
ATOM     27  O   UNL     1      58.823  70.679  48.288  0.00  0.00    +0.000 OA
ATOM     28  N   UNL     1      58.445  71.920  48.886  0.00  0.00    +0.000 NA
ATOM     29  C   UNL     1      58.362  72.395  49.557  0.00  0.00    +0.000 A 
ATOM     30  C   UNL     1      58.066  73.161  49.485  0.00  0.00    +0.000 A 
ATOM     31  C   UNL     1      57.851  73.453  48.744  0.00  0.00    +0.000 C 
ATOM     32  C   UNL     1      57.983  73.636  50.155  0.00  0.00    +0.000 A 
ATOM     33  C   UNL     1      58.198  73.344  50.897  0.00  0.00    +0.000 A 
ATOM     34  C   UNL     1      58.495  72.577  50.967  0.00  0.00    +0.000 A 
ATOM     35  C   UNL     1      58.577  72.103  50.297  0.00  0.00    +0.000 A 
ATOM     36  C   UNL     1      58.709  72.285  51.709  0.00  0.00    +0.000 C 
ATOM     37  O   UNL     1      59.006  71.519  51.780  0.00  0.00    +0.000 OA
ATOM     38  N   UNL     1      58.627  72.759  52.378  0.00  0.00    +0.000 NA
ATOM     39  C   UNL     1      58.330  73.526  52.307  0.00  0.00    +0.000 A 
ATOM     40  C   UNL     1      58.116  73.818  51.566  0.00  0.00    +0.000 A 
ATOM     41  C   UNL     1      57.819  74.585  51.494  0.00  0.00    +0.000 A 
ATOM     42  C   UNL     1      57.737  75.059  52.164  0.00  0.00    +0.000 A 
ATOM     43  C   UNL     1      57.952  74.767  52.905  0.00  0.00    +0.000 A 
ATOM     44  C   UNL     1      57.870  75.241  53.575  0.00  0.00    +0.000 A 
ATOM     45  C   UNL     1      58.084  74.950  54.317  0.00  0.00    +0.000 A 
ATOM     46  C   UNL     1      58.381  74.183  54.388  0.00  0.00    +0.000 A 
ATOM     47  C   UNL     1      58.463  73.708  53.718  0.00  0.00    +0.000 A 
ATOM     48  C   UNL     1      58.248  74.001  52.977  0.00  0.00    +0.000 A 
ATOM     49  S   UNL     1      58.760  72.942  53.789  0.00  0.00    +0.000 S 
ATOM     50  O   UNL     1      59.056  72.176  53.861  0.00  0.00    +0.000 OA
ATOM     51  O   UNL     1      58.683  72.836  52.974  0.00  0.00    +0.000 OA
ATOM     52  O   UNL     1      58.836  73.047  54.604  0.00  0.00    +0.000 OA
ATOM     53  S   UNL     1      58.002  75.424  54.986  0.00  0.00    +0.000 S 
ATOM     54  O   UNL     1      57.920  75.899  55.656  0.00  0.00    +0.000 OA
ATOM     55  O   UNL     1      57.707  76.035  54.517  0.00  0.00    +0.000 OA
ATOM     56  O   UNL     1      58.297  74.813  55.455  0.00  0.00    +0.000 OA
ATOM     57  S   UNL     1      57.440  75.825  52.093  0.00  0.00    +0.000 S 
ATOM     58  O   UNL     1      57.144  76.592  52.022  0.00  0.00    +0.000 OA
ATOM     59  O   UNL     1      57.517  75.931  52.908  0.00  0.00    +0.000 OA
ATOM     60  O   UNL     1      57.364  75.720  51.278  0.00  0.00    +0.000 OA
ATOM     61  C   UNL     1      60.786  66.920  52.207  0.00  0.00    +0.000 A 
ATOM     62  C   UNL     1      62.270  63.087  52.565  0.00  0.00    +0.000 C 
ATOM     63  O   UNL     1      62.055  63.379  51.823  0.00  0.00    +0.000 OA
ATOM     64  N   UNL     1      62.567  62.321  52.635  0.00  0.00    +0.000 NA
ATOM     65  C   UNL     1      62.649  61.846  51.965  0.00  0.00    +0.000 A 
ATOM     66  C   UNL     1      62.434  62.138  51.225  0.00  0.00    +0.000 A 
ATOM     67  C   UNL     1      62.517  61.663  50.554  0.00  0.00    +0.000 A 
ATOM     68  C   UNL     1      62.813  60.897  50.626  0.00  0.00    +0.000 A 
ATOM     69  C   UNL     1      63.027  60.605  51.366  0.00  0.00    +0.000 A 
ATOM     70  C   UNL     1      63.324  59.839  51.438  0.00  0.00    +0.000 A 
ATOM     71  C   UNL     1      63.539  59.547  52.179  0.00  0.00    +0.000 A 
ATOM     72  C   UNL     1      63.457  60.022  52.849  0.00  0.00    +0.000 A 
ATOM     73  C   UNL     1      63.160  60.788  52.778  0.00  0.00    +0.000 A 
ATOM     74  C   UNL     1      62.945  61.080  52.037  0.00  0.00    +0.000 A 
ATOM     75  S   UNL     1      63.078  61.262  53.448  0.00  0.00    +0.000 S 
ATOM     76  O   UNL     1      62.996  61.737  54.118  0.00  0.00    +0.000 OA
ATOM     77  O   UNL     1      62.783  61.873  52.979  0.00  0.00    +0.000 OA
ATOM     78  O   UNL     1      63.373  60.651  53.917  0.00  0.00    +0.000 OA
ATOM     79  S   UNL     1      63.836  58.780  52.251  0.00  0.00    +0.000 S 
ATOM     80  O   UNL     1      63.912  58.886  53.065  0.00  0.00    +0.000 OA
ATOM     81  O   UNL     1      63.759  58.675  51.435  0.00  0.00    +0.000 OA
ATOM     82  O   UNL     1      64.132  58.014  52.322  0.00  0.00    +0.000 OA
ATOM     83  S   UNL     1      62.895  60.423  49.956  0.00  0.00    +0.000 S 
ATOM     84  O   UNL     1      63.190  59.812  50.425  0.00  0.00    +0.000 OA
ATOM     85  O   UNL     1      62.600  61.034  49.487  0.00  0.00    +0.000 OA
ATOM     86  O   UNL     1      62.977  59.948  49.286  0.00  0.00    +0.000 OA
ENDROOT
TORSDOF 0
ENDMDL
MODEL 3
REMARK VINA RESULT:   -17.747      1.544     12.214
REMARK INTER + INTRA:         -17.747
REMARK INTER:                 -17.747
REMARK INTRA:                   0.000
REMARK UNBOUND:                 0.000
ROOT
REMARK  Name = suramin
REMARK                            x       y       z     vdW  Elec       q    Type
REMARK                         _______ _______ _______ _____ _____    ______ ____
ATOM      1  C   UNL     1      60.794  69.425  55.155  0.00  0.00    +0.000 C 
ATOM      2  C   UNL     1      60.427  69.849  54.549  0.00  0.00    +0.000 A 
ATOM      3  C   UNL     1      60.200  70.632  54.672  0.00  0.00    +0.000 A 
ATOM      4  C   UNL     1      59.833  71.055  54.067  0.00  0.00    +0.000 A 
ATOM      5  C   UNL     1      59.693  70.696  53.338  0.00  0.00    +0.000 A 
ATOM      6  C   UNL     1      59.921  69.912  53.214  0.00  0.00    +0.000 A 
ATOM      7  C   UNL     1      60.288  69.488  53.820  0.00  0.00    +0.000 A 
ATOM      8  N   UNL     1      60.515  68.705  53.695  0.00  0.00    +0.000 NA
ATOM      9  C   UNL     1      60.376  68.345  52.967  0.00  0.00    +0.000 C 
ATOM     10  O   UNL     1      60.009  68.768  52.362  0.00  0.00    +0.000 OA
ATOM     11  C   UNL     1      60.603  67.562  52.843  0.00  0.00    +0.000 A 
ATOM     12  C   UNL     1      60.971  67.138  53.450  0.00  0.00    +0.000 A 
ATOM     13  C   UNL     1      61.198  66.355  53.326  0.00  0.00    +0.000 A 
ATOM     14  C   UNL     1      61.059  65.995  52.597  0.00  0.00    +0.000 A 
ATOM     15  C   UNL     1      60.691  66.419  51.991  0.00  0.00    +0.000 A 
ATOM     16  N   UNL     1      60.552  66.058  51.262  0.00  0.00    +0.000 NA
ATOM     17  C   UNL     1      60.779  65.275  51.138  0.00  0.00    +0.000 C 
ATOM     18  O   UNL     1      61.147  64.852  51.745  0.00  0.00    +0.000 OA
ATOM     19  N   UNL     1      60.640  64.915  50.409  0.00  0.00    +0.000 NA
ATOM     20  C   UNL     1      60.867  64.132  50.286  0.00  0.00    +0.000 A 
ATOM     21  C   UNL     1      61.235  63.708  50.892  0.00  0.00    +0.000 A 
ATOM     22  C   UNL     1      61.462  62.925  50.768  0.00  0.00    +0.000 A 
ATOM     23  C   UNL     1      61.323  62.565  50.039  0.00  0.00    +0.000 A 
ATOM     24  C   UNL     1      60.955  62.989  49.433  0.00  0.00    +0.000 A 
ATOM     25  C   UNL     1      60.728  63.771  49.557  0.00  0.00    +0.000 A 
ATOM     26  C   UNL     1      60.816  62.628  48.704  0.00  0.00    +0.000 C 
ATOM     27  O   UNL     1      60.449  63.051  48.098  0.00  0.00    +0.000 OA
ATOM     28  N   UNL     1      61.043  61.845  48.580  0.00  0.00    +0.000 NA
ATOM     29  C   UNL     1      61.411  61.422  49.187  0.00  0.00    +0.000 A 
ATOM     30  C   UNL     1      61.638  60.638  49.062  0.00  0.00    +0.000 A 
ATOM     31  C   UNL     1      61.499  60.278  48.334  0.00  0.00    +0.000 C 
ATOM     32  C   UNL     1      62.005  60.215  49.668  0.00  0.00    +0.000 A 
ATOM     33  C   UNL     1      62.145  60.575  50.398  0.00  0.00    +0.000 A 
ATOM     34  C   UNL     1      61.917  61.358  50.521  0.00  0.00    +0.000 A 
ATOM     35  C   UNL     1      61.550  61.781  49.915  0.00  0.00    +0.000 A 
ATOM     36  C   UNL     1      62.057  61.718  51.250  0.00  0.00    +0.000 C 
ATOM     37  O   UNL     1      61.829  62.502  51.373  0.00  0.00    +0.000 OA
ATOM     38  N   UNL     1      62.423  61.296  51.855  0.00  0.00    +0.000 NA
ATOM     39  C   UNL     1      62.651  60.512  51.732  0.00  0.00    +0.000 A 
ATOM     40  C   UNL     1      62.511  60.152  51.003  0.00  0.00    +0.000 A 
ATOM     41  C   UNL     1      62.739  59.368  50.879  0.00  0.00    +0.000 A 
ATOM     42  C   UNL     1      63.106  58.945  51.485  0.00  0.00    +0.000 A 
ATOM     43  C   UNL     1      63.246  59.306  52.214  0.00  0.00    +0.000 A 
ATOM     44  C   UNL     1      63.613  58.882  52.819  0.00  0.00    +0.000 A 
ATOM     45  C   UNL     1      63.752  59.242  53.548  0.00  0.00    +0.000 A 
ATOM     46  C   UNL     1      63.525  60.026  53.672  0.00  0.00    +0.000 A 
ATOM     47  C   UNL     1      63.158  60.449  53.066  0.00  0.00    +0.000 A 
ATOM     48  C   UNL     1      63.018  60.088  52.337  0.00  0.00    +0.000 A 
ATOM     49  S   UNL     1      62.930  61.232  53.190  0.00  0.00    +0.000 S 
ATOM     50  O   UNL     1      62.703  62.015  53.314  0.00  0.00    +0.000 OA
ATOM     51  O   UNL     1      62.638  61.269  52.419  0.00  0.00    +0.000 OA
ATOM     52  O   UNL     1      63.223  61.196  53.960  0.00  0.00    +0.000 OA
ATOM     53  S   UNL     1      64.120  58.818  54.154  0.00  0.00    +0.000 S 
ATOM     54  O   UNL     1      64.487  58.395  54.760  0.00  0.00    +0.000 OA
ATOM     55  O   UNL     1      64.170  58.158  53.662  0.00  0.00    +0.000 OA
ATOM     56  O   UNL     1      64.069  59.478  54.646  0.00  0.00    +0.000 OA
ATOM     57  S   UNL     1      63.334  58.162  51.361  0.00  0.00    +0.000 S 
ATOM     58  O   UNL     1      63.561  57.379  51.238  0.00  0.00    +0.000 OA
ATOM     59  O   UNL     1      63.626  58.125  52.132  0.00  0.00    +0.000 OA
ATOM     60  O   UNL     1      63.041  58.198  50.591  0.00  0.00    +0.000 OA
ATOM     61  C   UNL     1      60.464  67.202  52.114  0.00  0.00    +0.000 A 
ATOM     62  C   UNL     1      59.326  71.118  52.733  0.00  0.00    +0.000 C 
ATOM     63  O   UNL     1      59.186  70.758  52.003  0.00  0.00    +0.000 OA
ATOM     64  N   UNL     1      59.098  71.902  52.856  0.00  0.00    +0.000 NA
ATOM     65  C   UNL     1      58.731  72.325  52.250  0.00  0.00    +0.000 A 
ATOM     66  C   UNL     1      58.592  71.965  51.522  0.00  0.00    +0.000 A 
ATOM     67  C   UNL     1      58.224  72.389  50.915  0.00  0.00    +0.000 A 
ATOM     68  C   UNL     1      57.997  73.172  51.039  0.00  0.00    +0.000 A 
ATOM     69  C   UNL     1      58.137  73.531  51.767  0.00  0.00    +0.000 A 
ATOM     70  C   UNL     1      57.909  74.315  51.892  0.00  0.00    +0.000 A 
ATOM     71  C   UNL     1      58.048  74.675  52.620  0.00  0.00    +0.000 A 
ATOM     72  C   UNL     1      58.416  74.251  53.226  0.00  0.00    +0.000 A 
ATOM     73  C   UNL     1      58.643  73.468  53.103  0.00  0.00    +0.000 A 
ATOM     74  C   UNL     1      58.504  73.108  52.374  0.00  0.00    +0.000 A 
ATOM     75  S   UNL     1      59.010  73.045  53.708  0.00  0.00    +0.000 S 
ATOM     76  O   UNL     1      59.377  72.622  54.314  0.00  0.00    +0.000 OA
ATOM     77  O   UNL     1      59.061  72.385  53.216  0.00  0.00    +0.000 OA
ATOM     78  O   UNL     1      58.960  73.705  54.201  0.00  0.00    +0.000 OA
ATOM     79  S   UNL     1      57.821  75.458  52.744  0.00  0.00    +0.000 S 
ATOM     80  O   UNL     1      58.114  75.421  53.515  0.00  0.00    +0.000 OA
ATOM     81  O   UNL     1      57.528  75.495  51.973  0.00  0.00    +0.000 OA
ATOM     82  O   UNL     1      57.594  76.241  52.868  0.00  0.00    +0.000 OA
ATOM     83  S   UNL     1      57.630  73.595  50.433  0.00  0.00    +0.000 S 
ATOM     84  O   UNL     1      57.579  74.255  50.926  0.00  0.00    +0.000 OA
ATOM     85  O   UNL     1      57.681  72.935  49.941  0.00  0.00    +0.000 OA
ATOM     86  O   UNL     1      57.263  74.018  49.828  0.00  0.00    +0.000 OA
ENDROOT
TORSDOF 0
ENDMDL
