MODEL 1
REMARK VINA RESULT:   -15.820      0.000      0.000
REMARK INTER + INTRA:         -15.820
REMARK INTER:                 -15.820
REMARK INTRA:                   0.000
REMARK UNBOUND:                 0.000
ROOT
REMARK  Name = talampicillin
REMARK                            x       y       z     vdW  Elec       q    Type
REMARK                         _______ _______ _______ _____ _____    ______ ____
ATOM      1  C   UNL     1      62.258  64.384  69.724  0.00  0.00    +0.000 C 
ATOM      2  C   UNL     1      61.690  63.839  69.476  0.00  0.00    +0.000 C 
ATOM      3  C   UNL     1      61.396  63.929  70.242  0.00  0.00    +0.000 C 
ATOM      4  S   UNL     1      62.103  63.864  68.762  0.00  0.00    +0.000 S 
ATOM      5  C   UNL     1      61.729  63.353  68.234  0.00  0.00    +0.000 C 
ATOM      6  C   UNL     1      61.544  62.926  67.552  0.00  0.00    +0.000 C 
ATOM      7  N   UNL     1      61.870  62.865  66.796  0.00  0.00    +0.000 NA
ATOM      8  C   UNL     1      61.525  62.364  66.238  0.00  0.00    +0.000 C 
ATOM      9  O   UNL     1      60.855  61.925  66.436  0.00  0.00    +0.000 OA
ATOM     10  C   UNL     1      61.850  62.303  65.482  0.00  0.00    +0.000 C 
ATOM     11  N   UNL     1      62.520  62.742  65.284  0.00  0.00    +0.000 NA
ATOM     12  C   UNL     1      61.505  61.802  64.924  0.00  0.00    +0.000 A 
ATOM     13  C   UNL     1      61.831  61.741  64.169  0.00  0.00    +0.000 A 
ATOM     14  C   UNL     1      61.486  61.241  63.611  0.00  0.00    +0.000 A 
ATOM     15  C   UNL     1      60.816  60.802  63.808  0.00  0.00    +0.000 A 
ATOM     16  C   UNL     1      60.490  60.863  64.564  0.00  0.00    +0.000 A 
ATOM     17  C   UNL     1      60.835  61.363  65.122  0.00  0.00    +0.000 A 
ATOM     18  C   UNL     1      60.901  62.586  67.939  0.00  0.00    +0.000 C 
ATOM     19  O   UNL     1      60.315  62.044  67.731  0.00  0.00    +0.000 OA
ATOM     20  N   UNL     1      61.084  63.012  68.621  0.00  0.00    +0.000 N 
ATOM     21  C   UNL     1      61.060  63.313  69.388  0.00  0.00    +0.000 C 
ATOM     22  C   UNL     1      60.505  63.122  69.968  0.00  0.00    +0.000 C 
ATOM     23  O   UNL     1      59.903  62.583  69.799  0.00  0.00    +0.000 OA
ATOM     24  O   UNL     1      60.551  63.469  70.715  0.00  0.00    +0.000 OA
ATOM     25  C   UNL     1      61.153  64.007  70.883  0.00  0.00    +0.000 C 
ATOM     26  O   UNL     1      61.745  64.251  70.363  0.00  0.00    +0.000 OA
ATOM     27  C   UNL     1      62.227  64.790  70.759  0.00  0.00    +0.000 C 
ATOM     28  O   UNL     1      62.887  65.173  70.445  0.00  0.00    +0.000 OA
ATOM     29  C   UNL     1      61.932  64.880  71.524  0.00  0.00    +0.000 A 
ATOM     30  C   UNL     1      61.269  64.395  71.601  0.00  0.00    +0.000 A 
ATOM     31  C   UNL     1      60.857  64.371  72.315  0.00  0.00    +0.000 A 
ATOM     32  C   UNL     1      61.107  64.831  72.952  0.00  0.00    +0.000 A 
ATOM     33  C   UNL     1      61.770  65.315  72.876  0.00  0.00    +0.000 A 
ATOM     34  C   UNL     1      62.183  65.340  72.162  0.00  0.00    +0.000 A 
ENDROOT
TORSDOF 0
ENDMDL
MODEL 2
REMARK VINA RESULT:   -15.459      1.101      6.047
REMARK INTER + INTRA:         -15.459
REMARK INTER:                 -15.459
REMARK INTRA:                   0.000
REMARK UNBOUND:                 0.000
ROOT
REMARK  Name = talampicillin
REMARK                            x       y       z     vdW  Elec       q    Type
REMARK                         _______ _______ _______ _____ _____    ______ ____
ATOM      1  C   UNL     1      62.006  62.754  66.361  0.00  0.00    +0.000 C 
ATOM      2  C   UNL     1      61.355  62.664  66.861  0.00  0.00    +0.000 C 
ATOM      3  C   UNL     1      61.047  62.221  66.237  0.00  0.00    +0.000 C 
ATOM      4  S   UNL     1      61.799  63.126  67.380  0.00  0.00    +0.000 S 
ATOM      5  C   UNL     1      61.358  63.229  68.070  0.00  0.00    +0.000 C 
ATOM      6  C   UNL     1      61.126  63.467  68.826  0.00  0.00    +0.000 C 
ATOM      7  N   UNL     1      61.470  63.917  69.426  0.00  0.00    +0.000 NA
ATOM      8  C   UNL     1      61.062  64.043  70.132  0.00  0.00    +0.000 C 
ATOM      9  O   UNL     1      60.310  63.719  70.237  0.00  0.00    +0.000 OA
ATOM     10  C   UNL     1      61.404  64.493  70.732  0.00  0.00    +0.000 C 
ATOM     11  N   UNL     1      62.156  64.817  70.627  0.00  0.00    +0.000 NA
ATOM     12  C   UNL     1      60.996  64.619  71.438  0.00  0.00    +0.000 A 
ATOM     13  C   UNL     1      61.339  65.069  72.038  0.00  0.00    +0.000 A 
ATOM     14  C   UNL     1      60.931  65.195  72.743  0.00  0.00    +0.000 A 
ATOM     15  C   UNL     1      60.180  64.872  72.849  0.00  0.00    +0.000 A 
ATOM     16  C   UNL     1      59.836  64.422  72.249  0.00  0.00    +0.000 A 
ATOM     17  C   UNL     1      60.244  64.295  71.543  0.00  0.00    +0.000 A 
ATOM     18  C   UNL     1      60.411  63.068  68.732  0.00  0.00    +0.000 C 
ATOM     19  O   UNL     1      59.742  62.954  69.200  0.00  0.00    +0.000 OA
ATOM     20  N   UNL     1      60.641  62.830  67.977  0.00  0.00    +0.000 N 
ATOM     21  C   UNL     1      60.640  62.481  67.230  0.00  0.00    +0.000 C 
ATOM     22  C   UNL     1      60.030  62.028  66.907  0.00  0.00    +0.000 C 
ATOM     23  O   UNL     1      59.344  61.891  67.343  0.00  0.00    +0.000 OA
ATOM     24  O   UNL     1      60.107  61.713  66.148  0.00  0.00    +0.000 OA
ATOM     25  C   UNL     1      60.793  61.850  65.712  0.00  0.00    +0.000 C 
ATOM     26  O   UNL     1      61.446  62.290  65.960  0.00  0.00    +0.000 OA
ATOM     27  C   UNL     1      62.004  62.284  65.353  0.00  0.00    +0.000 C 
ATOM     28  O   UNL     1      62.741  62.656  65.367  0.00  0.00    +0.000 OA
ATOM     29  C   UNL     1      61.696  61.840  64.729  0.00  0.00    +0.000 A 
ATOM     30  C   UNL     1      60.948  61.573  64.951  0.00  0.00    +0.000 A 
ATOM     31  C   UNL     1      60.505  61.110  64.431  0.00  0.00    +0.000 A 
ATOM     32  C   UNL     1      60.809  60.916  63.690  0.00  0.00    +0.000 A 
ATOM     33  C   UNL     1      61.557  61.184  63.468  0.00  0.00    +0.000 A 
ATOM     34  C   UNL     1      62.001  61.646  63.987  0.00  0.00    +0.000 A 
ENDROOT
TORSDOF 0
ENDMDL
MODEL 3
REMARK VINA RESULT:   -14.527      1.805      2.641
REMARK INTER + INTRA:         -14.527
REMARK INTER:                 -14.527
REMARK INTRA:                   0.000
REMARK UNBOUND:                 0.000
ROOT
REMARK  Name = talampicillin
REMARK                            x       y       z     vdW  Elec       q    Type
REMARK                         _______ _______ _______ _____ _____    ______ ____
ATOM      1  C   UNL     1      63.963  65.262  69.753  0.00  0.00    +0.000 C 
ATOM      2  C   UNL     1      63.142  65.183  69.789  0.00  0.00    +0.000 C 
ATOM      3  C   UNL     1      63.208  65.694  70.433  0.00  0.00    +0.000 C 
ATOM      4  S   UNL     1      63.249  64.689  69.137  0.00  0.00    +0.000 S 
ATOM      5  C   UNL     1      62.508  64.411  68.904  0.00  0.00    +0.000 C 
ATOM      6  C   UNL     1      61.912  64.014  68.494  0.00  0.00    +0.000 C 
ATOM      7  N   UNL     1      61.889  63.505  67.845  0.00  0.00    +0.000 NA
ATOM      8  C   UNL     1      61.168  63.204  67.581  0.00  0.00    +0.000 C 
ATOM      9  O   UNL     1      60.469  63.414  67.966  0.00  0.00    +0.000 OA
ATOM     10  C   UNL     1      61.145  62.696  66.932  0.00  0.00    +0.000 C 
ATOM     11  N   UNL     1      61.844  62.487  66.547  0.00  0.00    +0.000 NA
ATOM     12  C   UNL     1      60.423  62.396  66.668  0.00  0.00    +0.000 A 
ATOM     13  C   UNL     1      60.401  61.887  66.019  0.00  0.00    +0.000 A 
ATOM     14  C   UNL     1      59.680  61.587  65.755  0.00  0.00    +0.000 A 
ATOM     15  C   UNL     1      58.980  61.796  66.139  0.00  0.00    +0.000 A 
ATOM     16  C   UNL     1      59.002  62.305  66.788  0.00  0.00    +0.000 A 
ATOM     17  C   UNL     1      59.724  62.605  67.053  0.00  0.00    +0.000 A 
ATOM     18  C   UNL     1      61.348  64.336  69.002  0.00  0.00    +0.000 C 
ATOM     19  O   UNL     1      60.528  64.283  69.072  0.00  0.00    +0.000 OA
ATOM     20  N   UNL     1      61.943  64.733  69.412  0.00  0.00    +0.000 N 
ATOM     21  C   UNL     1      62.335  65.210  69.959  0.00  0.00    +0.000 C 
ATOM     22  C   UNL     1      61.983  65.640  70.569  0.00  0.00    +0.000 C 
ATOM     23  O   UNL     1      61.166  65.614  70.672  0.00  0.00    +0.000 OA
ATOM     24  O   UNL     1      62.449  66.095  71.075  0.00  0.00    +0.000 OA
ATOM     25  C   UNL     1      63.267  66.121  70.972  0.00  0.00    +0.000 C 
ATOM     26  O   UNL     1      63.695  65.723  70.390  0.00  0.00    +0.000 OA
ATOM     27  C   UNL     1      64.493  65.906  70.491  0.00  0.00    +0.000 C 
ATOM     28  O   UNL     1      65.117  65.627  70.028  0.00  0.00    +0.000 OA
ATOM     29  C   UNL     1      64.558  66.416  71.135  0.00  0.00    +0.000 A 
ATOM     30  C   UNL     1      63.800  66.550  71.432  0.00  0.00    +0.000 A 
ATOM     31  C   UNL     1      63.695  67.044  72.084  0.00  0.00    +0.000 A 
ATOM     32  C   UNL     1      64.346  67.405  72.439  0.00  0.00    +0.000 A 
ATOM     33  C   UNL     1      65.104  67.272  72.141  0.00  0.00    +0.000 A 
ATOM     34  C   UNL     1      65.211  66.778  71.489  0.00  0.00    +0.000 A 
ENDROOT
TORSDOF 0
ENDMDL
MODEL 4
REMARK VINA RESULT:   -14.346      1.698      2.573
REMARK INTER + INTRA:         -14.346
REMARK INTER:                 -14.346
REMARK INTRA:                   0.000
REMARK UNBOUND:                 0.000
ROOT
REMARK  Name = talampicillin
REMARK                            x       y       z     vdW  Elec       q    Type
REMARK                         _______ _______ _______ _____ _____    ______ ____
ATOM      1  C   UNL     1      60.895  65.949  70.744  0.00  0.00    +0.000 C 
ATOM      2  C   UNL     1      61.478  65.571  70.298  0.00  0.00    +0.000 C 
ATOM      3  C   UNL     1      61.998  65.987  70.785  0.00  0.00    +0.000 C 
ATOM      4  S   UNL     1      60.836  65.234  69.904  0.00  0.00    +0.000 S 
ATOM      5  C   UNL     1      61.131  64.736  69.317  0.00  0.00    +0.000 C 
ATOM      6  C   UNL     1      61.174  64.201  68.689  0.00  0.00    +0.000 C 
ATOM      7  N   UNL     1      60.621  63.804  68.224  0.00  0.00    +0.000 NA
ATOM      8  C   UNL     1      60.874  63.295  67.625  0.00  0.00    +0.000 C 
ATOM      9  O   UNL     1      61.682  63.185  67.493  0.00  0.00    +0.000 OA
ATOM     10  C   UNL     1      60.322  62.897  67.160  0.00  0.00    +0.000 C 
ATOM     11  N   UNL     1      59.515  63.008  67.292  0.00  0.00    +0.000 NA
ATOM     12  C   UNL     1      60.576  62.389  66.562  0.00  0.00    +0.000 A 
ATOM     13  C   UNL     1      60.023  61.991  66.096  0.00  0.00    +0.000 A 
ATOM     14  C   UNL     1      60.277  61.483  65.498  0.00  0.00    +0.000 A 
ATOM     15  C   UNL     1      61.084  61.373  65.366  0.00  0.00    +0.000 A 
ATOM     16  C   UNL     1      61.637  61.770  65.831  0.00  0.00    +0.000 A 
ATOM     17  C   UNL     1      61.383  62.278  66.429  0.00  0.00    +0.000 A 
ATOM     18  C   UNL     1      61.997  64.230  68.720  0.00  0.00    +0.000 C 
ATOM     19  O   UNL     1      62.609  63.873  68.299  0.00  0.00    +0.000 OA
ATOM     20  N   UNL     1      61.955  64.764  69.348  0.00  0.00    +0.000 N 
ATOM     21  C   UNL     1      62.170  65.280  69.954  0.00  0.00    +0.000 C 
ATOM     22  C   UNL     1      62.940  65.473  70.178  0.00  0.00    +0.000 C 
ATOM     23  O   UNL     1      63.580  65.137  69.781  0.00  0.00    +0.000 OA
ATOM     24  O   UNL     1      63.070  66.002  70.798  0.00  0.00    +0.000 OA
ATOM     25  C   UNL     1      62.430  66.337  71.195  0.00  0.00    +0.000 C 
ATOM     26  O   UNL     1      61.632  66.198  71.034  0.00  0.00    +0.000 OA
ATOM     27  C   UNL     1      61.184  66.646  71.562  0.00  0.00    +0.000 C 
ATOM     28  O   UNL     1      60.360  66.673  71.597  0.00  0.00    +0.000 OA
ATOM     29  C   UNL     1      61.704  67.062  72.049  0.00  0.00    +0.000 A 
ATOM     30  C   UNL     1      62.474  66.871  71.822  0.00  0.00    +0.000 A 
ATOM     31  C   UNL     1      63.115  67.208  72.216  0.00  0.00    +0.000 A 
ATOM     32  C   UNL     1      62.987  67.736  72.837  0.00  0.00    +0.000 A 
ATOM     33  C   UNL     1      62.218  67.927  73.064  0.00  0.00    +0.000 A 
ATOM     34  C   UNL     1      61.575  67.590  72.670  0.00  0.00    +0.000 A 
ENDROOT
TORSDOF 0
ENDMDL
