MODEL 1
REMARK VINA RESULT:   -14.091      0.000      0.000
REMARK INTER + INTRA:         -14.091
REMARK INTER:                 -14.091
REMARK INTRA:                   0.000
REMARK UNBOUND:                 0.000
ROOT
REMARK  Name = tandospirone
REMARK                            x       y       z     vdW  Elec       q    Type
REMARK                         _______ _______ _______ _____ _____    ______ ____
ATOM      1  O   UNL     1      62.378  62.754  66.226  0.00  0.00    +0.000 OA
ATOM      2  C   UNL     1      61.753  62.358  65.859  0.00  0.00    +0.000 C 
ATOM      3  C   UNL     1      61.775  62.001  65.116  0.00  0.00    +0.000 C 
ATOM      4  C   UNL     1      62.376  61.930  64.554  0.00  0.00    +0.000 C 
ATOM      5  C   UNL     1      62.234  61.533  63.845  0.00  0.00    +0.000 C 
ATOM      6  C   UNL     1      61.491  61.206  63.698  0.00  0.00    +0.000 C 
ATOM      7  C   UNL     1      60.890  61.275  64.259  0.00  0.00    +0.000 C 
ATOM      8  C   UNL     1      61.568  61.671  64.590  0.00  0.00    +0.000 C 
ATOM      9  C   UNL     1      61.033  61.673  64.968  0.00  0.00    +0.000 C 
ATOM     10  C   UNL     1      60.551  61.828  65.620  0.00  0.00    +0.000 C 
ATOM     11  O   UNL     1      59.763  61.600  65.707  0.00  0.00    +0.000 OA
ATOM     12  N   UNL     1      60.997  62.252  66.171  0.00  0.00    +0.000 N 
ATOM     13  C   UNL     1      60.732  62.522  66.904  0.00  0.00    +0.000 C 
ATOM     14  C   UNL     1      61.243  62.940  67.398  0.00  0.00    +0.000 C 
ATOM     15  C   UNL     1      60.978  63.210  68.131  0.00  0.00    +0.000 C 
ATOM     16  C   UNL     1      61.489  63.628  68.625  0.00  0.00    +0.000 C 
ATOM     17  N   UNL     1      61.224  63.898  69.359  0.00  0.00    +0.000 NA
ATOM     18  C   UNL     1      61.735  64.317  69.854  0.00  0.00    +0.000 C 
ATOM     19  C   UNL     1      61.471  64.587  70.587  0.00  0.00    +0.000 C 
ATOM     20  N   UNL     1      60.695  64.438  70.826  0.00  0.00    +0.000 N 
ATOM     21  C   UNL     1      60.184  64.020  70.331  0.00  0.00    +0.000 C 
ATOM     22  C   UNL     1      60.449  63.750  69.598  0.00  0.00    +0.000 C 
ATOM     23  C   UNL     1      60.430  64.708  71.560  0.00  0.00    +0.000 A 
ATOM     24  N   UNL     1      60.941  65.127  72.054  0.00  0.00    +0.000 NA
ATOM     25  C   UNL     1      60.677  65.396  72.787  0.00  0.00    +0.000 A 
ATOM     26  C   UNL     1      59.901  65.247  73.025  0.00  0.00    +0.000 A 
ATOM     27  C   UNL     1      59.390  64.829  72.531  0.00  0.00    +0.000 A 
ATOM     28  N   UNL     1      59.655  64.559  71.798  0.00  0.00    +0.000 NA
ENDROOT
TORSDOF 0
ENDMDL
MODEL 2
REMARK VINA RESULT:   -13.253      2.097      6.913
REMARK INTER + INTRA:         -13.253
REMARK INTER:                 -13.253
REMARK INTRA:                   0.000
REMARK UNBOUND:                 0.000
ROOT
REMARK  Name = tandospirone
REMARK                            x       y       z     vdW  Elec       q    Type
REMARK                         _______ _______ _______ _____ _____    ______ ____
ATOM      1  O   UNL     1      59.387  64.328  71.464  0.00  0.00    +0.000 OA
ATOM      2  C   UNL     1      59.334  65.150  71.408  0.00  0.00    +0.000 C 
ATOM      3  C   UNL     1      59.054  65.659  71.993  0.00  0.00    +0.000 C 
ATOM      4  C   UNL     1      58.762  65.521  72.753  0.00  0.00    +0.000 C 
ATOM      5  C   UNL     1      58.517  66.153  73.222  0.00  0.00    +0.000 C 
ATOM      6  C   UNL     1      58.562  66.924  72.932  0.00  0.00    +0.000 C 
ATOM      7  C   UNL     1      58.853  67.063  72.173  0.00  0.00    +0.000 C 
ATOM      8  C   UNL     1      58.886  66.220  72.285  0.00  0.00    +0.000 C 
ATOM      9  C   UNL     1      59.099  66.430  71.703  0.00  0.00    +0.000 C 
ATOM     10  C   UNL     1      59.408  66.397  70.939  0.00  0.00    +0.000 C 
ATOM     11  O   UNL     1      59.547  67.043  70.444  0.00  0.00    +0.000 OA
ATOM     12  N   UNL     1      59.553  65.605  70.756  0.00  0.00    +0.000 N 
ATOM     13  C   UNL     1      59.863  65.320  70.047  0.00  0.00    +0.000 C 
ATOM     14  C   UNL     1      59.979  64.511  69.943  0.00  0.00    +0.000 C 
ATOM     15  C   UNL     1      60.288  64.226  69.234  0.00  0.00    +0.000 C 
ATOM     16  C   UNL     1      60.404  63.416  69.130  0.00  0.00    +0.000 C 
ATOM     17  N   UNL     1      60.714  63.131  68.421  0.00  0.00    +0.000 NA
ATOM     18  C   UNL     1      60.829  62.320  68.317  0.00  0.00    +0.000 C 
ATOM     19  C   UNL     1      61.139  62.035  67.607  0.00  0.00    +0.000 C 
ATOM     20  N   UNL     1      61.334  62.561  67.001  0.00  0.00    +0.000 N 
ATOM     21  C   UNL     1      61.218  63.371  67.105  0.00  0.00    +0.000 C 
ATOM     22  C   UNL     1      60.908  63.656  67.815  0.00  0.00    +0.000 C 
ATOM     23  C   UNL     1      61.644  62.276  66.291  0.00  0.00    +0.000 A 
ATOM     24  N   UNL     1      61.759  61.465  66.188  0.00  0.00    +0.000 NA
ATOM     25  C   UNL     1      62.069  61.180  65.479  0.00  0.00    +0.000 A 
ATOM     26  C   UNL     1      62.263  61.706  64.873  0.00  0.00    +0.000 A 
ATOM     27  C   UNL     1      62.148  62.516  64.977  0.00  0.00    +0.000 A 
ATOM     28  N   UNL     1      61.838  62.801  65.686  0.00  0.00    +0.000 NA
ENDROOT
TORSDOF 0
ENDMDL
MODEL 3
REMARK VINA RESULT:   -12.883      2.458      3.341
REMARK INTER + INTRA:         -12.883
REMARK INTER:                 -12.883
REMARK INTRA:                   0.000
REMARK UNBOUND:                 0.000
ROOT
REMARK  Name = tandospirone
REMARK                            x       y       z     vdW  Elec       q    Type
REMARK                         _______ _______ _______ _____ _____    ______ ____
ATOM      1  O   UNL     1      60.069  63.455  68.119  0.00  0.00    +0.000 OA
ATOM      2  C   UNL     1      60.420  63.072  67.478  0.00  0.00    +0.000 C 
ATOM      3  C   UNL     1      60.031  62.607  66.918  0.00  0.00    +0.000 C 
ATOM      4  C   UNL     1      59.238  62.396  66.829  0.00  0.00    +0.000 C 
ATOM      5  C   UNL     1      59.007  61.914  66.202  0.00  0.00    +0.000 C 
ATOM      6  C   UNL     1      59.568  61.642  65.662  0.00  0.00    +0.000 C 
ATOM      7  C   UNL     1      60.361  61.852  65.750  0.00  0.00    +0.000 C 
ATOM      8  C   UNL     1      59.947  62.225  66.394  0.00  0.00    +0.000 C 
ATOM      9  C   UNL     1      60.593  62.335  66.378  0.00  0.00    +0.000 C 
ATOM     10  C   UNL     1      61.329  62.632  66.604  0.00  0.00    +0.000 C 
ATOM     11  O   UNL     1      62.046  62.497  66.218  0.00  0.00    +0.000 OA
ATOM     12  N   UNL     1      61.222  63.088  67.284  0.00  0.00    +0.000 N 
ATOM     13  C   UNL     1      61.813  63.488  67.697  0.00  0.00    +0.000 C 
ATOM     14  C   UNL     1      61.622  63.924  68.371  0.00  0.00    +0.000 C 
ATOM     15  C   UNL     1      62.213  64.324  68.784  0.00  0.00    +0.000 C 
ATOM     16  C   UNL     1      62.023  64.760  69.457  0.00  0.00    +0.000 C 
ATOM     17  N   UNL     1      62.614  65.160  69.870  0.00  0.00    +0.000 NA
ATOM     18  C   UNL     1      62.423  65.597  70.545  0.00  0.00    +0.000 C 
ATOM     19  C   UNL     1      63.015  65.997  70.958  0.00  0.00    +0.000 C 
ATOM     20  N   UNL     1      63.797  65.962  70.697  0.00  0.00    +0.000 N 
ATOM     21  C   UNL     1      63.987  65.526  70.023  0.00  0.00    +0.000 C 
ATOM     22  C   UNL     1      63.396  65.125  69.610  0.00  0.00    +0.000 C 
ATOM     23  C   UNL     1      64.388  66.362  71.110  0.00  0.00    +0.000 A 
ATOM     24  N   UNL     1      64.197  66.798  71.784  0.00  0.00    +0.000 NA
ATOM     25  C   UNL     1      64.788  67.199  72.197  0.00  0.00    +0.000 A 
ATOM     26  C   UNL     1      65.570  67.163  71.936  0.00  0.00    +0.000 A 
ATOM     27  C   UNL     1      65.761  66.727  71.263  0.00  0.00    +0.000 A 
ATOM     28  N   UNL     1      65.170  66.327  70.849  0.00  0.00    +0.000 NA
ENDROOT
TORSDOF 0
ENDMDL
MODEL 4
REMARK VINA RESULT:   -12.745      1.625      6.842
REMARK INTER + INTRA:         -12.745
REMARK INTER:                 -12.745
REMARK INTRA:                   0.000
REMARK UNBOUND:                 0.000
ROOT
REMARK  Name = tandospirone
REMARK                            x       y       z     vdW  Elec       q    Type
REMARK                         _______ _______ _______ _____ _____    ______ ____
ATOM      1  O   UNL     1      59.594  63.805  70.790  0.00  0.00    +0.000 OA
ATOM      2  C   UNL     1      60.183  64.292  71.103  0.00  0.00    +0.000 C 
ATOM      3  C   UNL     1      60.166  64.661  71.841  0.00  0.00    +0.000 C 
ATOM      4  C   UNL     1      59.605  64.660  72.447  0.00  0.00    +0.000 C 
ATOM      5  C   UNL     1      59.742  65.090  73.137  0.00  0.00    +0.000 C 
ATOM      6  C   UNL     1      60.440  65.521  73.222  0.00  0.00    +0.000 C 
ATOM      7  C   UNL     1      61.001  65.523  72.618  0.00  0.00    +0.000 C 
ATOM      8  C   UNL     1      60.364  65.029  72.345  0.00  0.00    +0.000 C 
ATOM      9  C   UNL     1      60.864  65.093  71.927  0.00  0.00    +0.000 C 
ATOM     10  C   UNL     1      61.312  64.991  71.241  0.00  0.00    +0.000 C 
ATOM     11  O   UNL     1      62.052  65.325  71.092  0.00  0.00    +0.000 OA
ATOM     12  N   UNL     1      60.891  64.496  70.732  0.00  0.00    +0.000 N 
ATOM     13  C   UNL     1      61.135  64.248  69.984  0.00  0.00    +0.000 C 
ATOM     14  C   UNL     1      60.653  63.751  69.537  0.00  0.00    +0.000 C 
ATOM     15  C   UNL     1      60.898  63.504  68.789  0.00  0.00    +0.000 C 
ATOM     16  C   UNL     1      60.416  63.007  68.341  0.00  0.00    +0.000 C 
ATOM     17  N   UNL     1      60.661  62.759  67.593  0.00  0.00    +0.000 NA
ATOM     18  C   UNL     1      60.178  62.262  67.145  0.00  0.00    +0.000 C 
ATOM     19  C   UNL     1      60.423  62.014  66.396  0.00  0.00    +0.000 C 
ATOM     20  N   UNL     1      61.150  62.264  66.096  0.00  0.00    +0.000 N 
ATOM     21  C   UNL     1      61.632  62.762  66.545  0.00  0.00    +0.000 C 
ATOM     22  C   UNL     1      61.387  63.009  67.293  0.00  0.00    +0.000 C 
ATOM     23  C   UNL     1      61.395  62.017  65.348  0.00  0.00    +0.000 A 
ATOM     24  N   UNL     1      60.912  61.519  64.900  0.00  0.00    +0.000 NA
ATOM     25  C   UNL     1      61.157  61.272  64.152  0.00  0.00    +0.000 A 
ATOM     26  C   UNL     1      61.884  61.523  63.853  0.00  0.00    +0.000 A 
ATOM     27  C   UNL     1      62.366  62.020  64.300  0.00  0.00    +0.000 A 
ATOM     28  N   UNL     1      62.121  62.267  65.048  0.00  0.00    +0.000 NA
ENDROOT
TORSDOF 0
ENDMDL
MODEL 5
REMARK VINA RESULT:   -12.277      3.238      6.608
REMARK INTER + INTRA:         -12.277
REMARK INTER:                 -12.277
REMARK INTRA:                   0.000
REMARK UNBOUND:                 0.000
ROOT
REMARK  Name = tandospirone
REMARK                            x       y       z     vdW  Elec       q    Type
REMARK                         _______ _______ _______ _____ _____    ______ ____
ATOM      1  O   UNL     1      63.783  65.384  71.335  0.00  0.00    +0.000 OA
ATOM      2  C   UNL     1      64.358  65.814  70.927  0.00  0.00    +0.000 C 
ATOM      3  C   UNL     1      64.953  66.273  71.267  0.00  0.00    +0.000 C 
ATOM      4  C   UNL     1      65.145  66.435  72.053  0.00  0.00    +0.000 C 
ATOM      5  C   UNL     1      65.784  66.925  72.230  0.00  0.00    +0.000 C 
ATOM      6  C   UNL     1      66.232  67.254  71.620  0.00  0.00    +0.000 C 
ATOM      7  C   UNL     1      66.041  67.094  70.834  0.00  0.00    +0.000 C 
ATOM      8  C   UNL     1      65.472  66.670  71.305  0.00  0.00    +0.000 C 
ATOM      9  C   UNL     1      65.401  66.603  70.658  0.00  0.00    +0.000 C 
ATOM     10  C   UNL     1      65.083  66.346  69.940  0.00  0.00    +0.000 C 
ATOM     11  O   UNL     1      65.360  66.543  69.189  0.00  0.00    +0.000 OA
ATOM     12  N   UNL     1      64.438  65.859  70.107  0.00  0.00    +0.000 N 
ATOM     13  C   UNL     1      63.958  65.483  69.552  0.00  0.00    +0.000 C 
ATOM     14  C   UNL     1      63.331  65.010  69.802  0.00  0.00    +0.000 C 
ATOM     15  C   UNL     1      62.851  64.634  69.246  0.00  0.00    +0.000 C 
ATOM     16  C   UNL     1      62.224  64.161  69.496  0.00  0.00    +0.000 C 
ATOM     17  N   UNL     1      61.744  63.785  68.940  0.00  0.00    +0.000 NA
ATOM     18  C   UNL     1      61.115  63.311  69.191  0.00  0.00    +0.000 C 
ATOM     19  C   UNL     1      60.635  62.935  68.635  0.00  0.00    +0.000 C 
ATOM     20  N   UNL     1      60.783  63.032  67.828  0.00  0.00    +0.000 N 
ATOM     21  C   UNL     1      61.411  63.505  67.579  0.00  0.00    +0.000 C 
ATOM     22  C   UNL     1      61.891  63.881  68.135  0.00  0.00    +0.000 C 
ATOM     23  C   UNL     1      60.303  62.656  67.273  0.00  0.00    +0.000 A 
ATOM     24  N   UNL     1      59.676  62.182  67.524  0.00  0.00    +0.000 NA
ATOM     25  C   UNL     1      59.196  61.806  66.968  0.00  0.00    +0.000 A 
ATOM     26  C   UNL     1      59.344  61.904  66.162  0.00  0.00    +0.000 A 
ATOM     27  C   UNL     1      59.971  62.376  65.912  0.00  0.00    +0.000 A 
ATOM     28  N   UNL     1      60.451  62.753  66.468  0.00  0.00    +0.000 NA
ENDROOT
TORSDOF 0
ENDMDL
