MODEL 1
REMARK VINA RESULT:   -14.381      0.000      0.000
REMARK INTER + INTRA:         -14.381
REMARK INTER:                 -14.381
REMARK INTRA:                   0.000
REMARK UNBOUND:                 0.000
ROOT
REMARK  Name = tartrazine
REMARK                            x       y       z     vdW  Elec       q    Type
REMARK                         _______ _______ _______ _____ _____    ______ ____
ATOM      1  O   UNL     1      60.160  62.564  70.463  0.00  0.00    +0.000 OA
ATOM      2  C   UNL     1      60.435  62.095  69.843  0.00  0.00    +0.000 C 
ATOM      3  O   UNL     1      60.519  61.281  69.946  0.00  0.00    +0.000 OA
ATOM      4  C   UNL     1      60.626  62.441  69.118  0.00  0.00    +0.000 A 
ATOM      5  N   UNL     1      60.906  62.045  68.451  0.00  0.00    +0.000 NA
ATOM      6  N   UNL     1      61.024  62.603  67.854  0.00  0.00    +0.000 N 
ATOM      7  C   UNL     1      60.816  63.343  68.153  0.00  0.00    +0.000 A 
ATOM      8  O   UNL     1      60.849  64.058  67.742  0.00  0.00    +0.000 OA
ATOM      9  C   UNL     1      60.570  63.243  68.935  0.00  0.00    +0.000 A 
ATOM     10  N   UNL     1      60.314  63.841  69.442  0.00  0.00    +0.000 NA
ATOM     11  N   UNL     1      60.288  64.622  69.180  0.00  0.00    +0.000 NA
ATOM     12  C   UNL     1      60.032  65.220  69.687  0.00  0.00    +0.000 A 
ATOM     13  C   UNL     1      60.005  66.001  69.424  0.00  0.00    +0.000 A 
ATOM     14  C   UNL     1      59.749  66.599  69.932  0.00  0.00    +0.000 A 
ATOM     15  C   UNL     1      59.519  66.414  70.702  0.00  0.00    +0.000 A 
ATOM     16  C   UNL     1      59.545  65.633  70.965  0.00  0.00    +0.000 A 
ATOM     17  C   UNL     1      59.802  65.036  70.457  0.00  0.00    +0.000 A 
ATOM     18  S   UNL     1      59.263  67.012  71.210  0.00  0.00    +0.000 S 
ATOM     19  O   UNL     1      59.006  67.610  71.719  0.00  0.00    +0.000 OA
ATOM     20  O   UNL     1      59.380  67.570  70.614  0.00  0.00    +0.000 OA
ATOM     21  O   UNL     1      59.145  66.454  71.807  0.00  0.00    +0.000 OA
ATOM     22  C   UNL     1      61.301  62.447  67.092  0.00  0.00    +0.000 A 
ATOM     23  C   UNL     1      61.487  61.675  66.872  0.00  0.00    +0.000 A 
ATOM     24  C   UNL     1      61.763  61.519  66.110  0.00  0.00    +0.000 A 
ATOM     25  C   UNL     1      61.854  62.135  65.570  0.00  0.00    +0.000 A 
ATOM     26  C   UNL     1      61.667  62.909  65.791  0.00  0.00    +0.000 A 
ATOM     27  C   UNL     1      61.391  63.064  66.553  0.00  0.00    +0.000 A 
ATOM     28  S   UNL     1      62.130  61.980  64.808  0.00  0.00    +0.000 S 
ATOM     29  O   UNL     1      62.407  61.824  64.047  0.00  0.00    +0.000 OA
ATOM     30  O   UNL     1      62.075  62.783  64.624  0.00  0.00    +0.000 OA
ATOM     31  O   UNL     1      62.186  61.178  64.992  0.00  0.00    +0.000 OA
ENDROOT
TORSDOF 0
ENDMDL
MODEL 2
REMARK VINA RESULT:   -14.214      2.179      5.795
REMARK INTER + INTRA:         -14.214
REMARK INTER:                 -14.214
REMARK INTRA:                   0.000
REMARK UNBOUND:                 0.000
ROOT
REMARK  Name = tartrazine
REMARK                            x       y       z     vdW  Elec       q    Type
REMARK                         _______ _______ _______ _____ _____    ______ ____
ATOM      1  O   UNL     1      60.227  61.656  68.736  0.00  0.00    +0.000 OA
ATOM      2  C   UNL     1      60.450  62.115  69.385  0.00  0.00    +0.000 C 
ATOM      3  O   UNL     1      60.116  61.974  70.125  0.00  0.00    +0.000 OA
ATOM      4  C   UNL     1      61.008  62.717  69.291  0.00  0.00    +0.000 A 
ATOM      5  N   UNL     1      61.284  63.218  69.885  0.00  0.00    +0.000 NA
ATOM      6  N   UNL     1      61.834  63.733  69.548  0.00  0.00    +0.000 N 
ATOM      7  C   UNL     1      61.897  63.550  68.746  0.00  0.00    +0.000 A 
ATOM      8  O   UNL     1      62.386  63.928  68.200  0.00  0.00    +0.000 OA
ATOM      9  C   UNL     1      61.387  62.921  68.587  0.00  0.00    +0.000 A 
ATOM     10  N   UNL     1      61.276  62.561  67.853  0.00  0.00    +0.000 NA
ATOM     11  N   UNL     1      61.695  62.826  67.195  0.00  0.00    +0.000 NA
ATOM     12  C   UNL     1      61.584  62.467  66.462  0.00  0.00    +0.000 A 
ATOM     13  C   UNL     1      62.004  62.732  65.804  0.00  0.00    +0.000 A 
ATOM     14  C   UNL     1      61.893  62.372  65.070  0.00  0.00    +0.000 A 
ATOM     15  C   UNL     1      61.361  61.746  64.995  0.00  0.00    +0.000 A 
ATOM     16  C   UNL     1      60.941  61.480  65.653  0.00  0.00    +0.000 A 
ATOM     17  C   UNL     1      61.052  61.841  66.386  0.00  0.00    +0.000 A 
ATOM     18  S   UNL     1      61.249  61.386  64.261  0.00  0.00    +0.000 S 
ATOM     19  O   UNL     1      61.138  61.025  63.527  0.00  0.00    +0.000 OA
ATOM     20  O   UNL     1      61.799  61.900  63.924  0.00  0.00    +0.000 OA
ATOM     21  O   UNL     1      60.699  60.870  64.597  0.00  0.00    +0.000 OA
ATOM     22  C   UNL     1      62.247  64.328  69.944  0.00  0.00    +0.000 A 
ATOM     23  C   UNL     1      62.125  64.447  70.751  0.00  0.00    +0.000 A 
ATOM     24  C   UNL     1      62.539  65.041  71.147  0.00  0.00    +0.000 A 
ATOM     25  C   UNL     1      63.074  65.515  70.736  0.00  0.00    +0.000 A 
ATOM     26  C   UNL     1      63.196  65.396  69.928  0.00  0.00    +0.000 A 
ATOM     27  C   UNL     1      62.782  64.802  69.532  0.00  0.00    +0.000 A 
ATOM     28  S   UNL     1      63.488  66.110  71.132  0.00  0.00    +0.000 S 
ATOM     29  O   UNL     1      63.901  66.704  71.528  0.00  0.00    +0.000 OA
ATOM     30  O   UNL     1      63.867  66.315  70.428  0.00  0.00    +0.000 OA
ATOM     31  O   UNL     1      63.108  65.905  71.835  0.00  0.00    +0.000 OA
ENDROOT
TORSDOF 0
ENDMDL
MODEL 3
REMARK VINA RESULT:   -14.151      0.480      5.860
REMARK INTER + INTRA:         -14.151
REMARK INTER:                 -14.151
REMARK INTRA:                   0.000
REMARK UNBOUND:                 0.000
ROOT
REMARK  Name = tartrazine
REMARK                            x       y       z     vdW  Elec       q    Type
REMARK                         _______ _______ _______ _____ _____    ______ ____
ATOM      1  O   UNL     1      60.747  61.439  69.176  0.00  0.00    +0.000 OA
ATOM      2  C   UNL     1      60.482  61.942  69.773  0.00  0.00    +0.000 C 
ATOM      3  O   UNL     1      60.283  61.637  70.513  0.00  0.00    +0.000 OA
ATOM      4  C   UNL     1      60.415  62.753  69.630  0.00  0.00    +0.000 A 
ATOM      5  N   UNL     1      60.160  63.321  70.170  0.00  0.00    +0.000 NA
ATOM      6  N   UNL     1      60.179  64.056  69.796  0.00  0.00    +0.000 N 
ATOM      7  C   UNL     1      60.447  63.942  69.024  0.00  0.00    +0.000 A 
ATOM      8  O   UNL     1      60.551  64.530  68.455  0.00  0.00    +0.000 OA
ATOM      9  C   UNL     1      60.593  63.136  68.921  0.00  0.00    +0.000 A 
ATOM     10  N   UNL     1      60.868  62.778  68.231  0.00  0.00    +0.000 NA
ATOM     11  N   UNL     1      61.023  63.234  67.562  0.00  0.00    +0.000 NA
ATOM     12  C   UNL     1      61.298  62.876  66.872  0.00  0.00    +0.000 A 
ATOM     13  C   UNL     1      61.453  63.333  66.203  0.00  0.00    +0.000 A 
ATOM     14  C   UNL     1      61.728  62.974  65.513  0.00  0.00    +0.000 A 
ATOM     15  C   UNL     1      61.848  62.158  65.493  0.00  0.00    +0.000 A 
ATOM     16  C   UNL     1      61.694  61.701  66.162  0.00  0.00    +0.000 A 
ATOM     17  C   UNL     1      61.419  62.060  66.851  0.00  0.00    +0.000 A 
ATOM     18  S   UNL     1      62.124  61.799  64.803  0.00  0.00    +0.000 S 
ATOM     19  O   UNL     1      62.399  61.440  64.112  0.00  0.00    +0.000 OA
ATOM     20  O   UNL     1      62.144  62.533  64.428  0.00  0.00    +0.000 OA
ATOM     21  O   UNL     1      62.104  61.063  65.177  0.00  0.00    +0.000 OA
ATOM     22  C   UNL     1      59.968  64.779  70.134  0.00  0.00    +0.000 A 
ATOM     23  C   UNL     1      59.709  64.807  70.916  0.00  0.00    +0.000 A 
ATOM     24  C   UNL     1      59.498  65.530  71.254  0.00  0.00    +0.000 A 
ATOM     25  C   UNL     1      59.546  66.223  70.810  0.00  0.00    +0.000 A 
ATOM     26  C   UNL     1      59.806  66.194  70.027  0.00  0.00    +0.000 A 
ATOM     27  C   UNL     1      60.017  65.471  69.689  0.00  0.00    +0.000 A 
ATOM     28  S   UNL     1      59.335  66.946  71.148  0.00  0.00    +0.000 S 
ATOM     29  O   UNL     1      59.124  67.667  71.487  0.00  0.00    +0.000 OA
ATOM     30  O   UNL     1      59.513  67.329  70.439  0.00  0.00    +0.000 OA
ATOM     31  O   UNL     1      59.157  66.562  71.857  0.00  0.00    +0.000 OA
ENDROOT
TORSDOF 0
ENDMDL
MODEL 4
REMARK VINA RESULT:   -13.970      3.655      3.916
REMARK INTER + INTRA:         -13.970
REMARK INTER:                 -13.970
REMARK INTRA:                   0.000
REMARK UNBOUND:                 0.000
ROOT
REMARK  Name = tartrazine
REMARK                            x       y       z     vdW  Elec       q    Type
REMARK                         _______ _______ _______ _____ _____    ______ ____
ATOM      1  O   UNL     1      62.436  64.150  71.904  0.00  0.00    +0.000 OA
ATOM      2  C   UNL     1      61.878  63.706  71.488  0.00  0.00    +0.000 C 
ATOM      3  O   UNL     1      61.326  63.250  71.895  0.00  0.00    +0.000 OA
ATOM      4  C   UNL     1      61.874  63.720  70.662  0.00  0.00    +0.000 A 
ATOM      5  N   UNL     1      61.354  63.308  70.174  0.00  0.00    +0.000 NA
ATOM      6  N   UNL     1      61.548  63.481  69.390  0.00  0.00    +0.000 N 
ATOM      7  C   UNL     1      62.189  64.000  69.396  0.00  0.00    +0.000 A 
ATOM      8  O   UNL     1      62.562  64.317  68.731  0.00  0.00    +0.000 OA
ATOM      9  C   UNL     1      62.391  64.148  70.182  0.00  0.00    +0.000 A 
ATOM     10  N   UNL     1      63.002  64.638  70.441  0.00  0.00    +0.000 NA
ATOM     11  N   UNL     1      63.475  65.033  69.894  0.00  0.00    +0.000 NA
ATOM     12  C   UNL     1      64.085  65.523  70.153  0.00  0.00    +0.000 A 
ATOM     13  C   UNL     1      64.559  65.918  69.605  0.00  0.00    +0.000 A 
ATOM     14  C   UNL     1      65.170  66.408  69.865  0.00  0.00    +0.000 A 
ATOM     15  C   UNL     1      65.307  66.503  70.672  0.00  0.00    +0.000 A 
ATOM     16  C   UNL     1      64.834  66.108  71.221  0.00  0.00    +0.000 A 
ATOM     17  C   UNL     1      64.223  65.618  70.961  0.00  0.00    +0.000 A 
ATOM     18  S   UNL     1      65.918  66.993  70.932  0.00  0.00    +0.000 S 
ATOM     19  O   UNL     1      66.529  67.483  71.192  0.00  0.00    +0.000 OA
ATOM     20  O   UNL     1      66.112  67.166  70.150  0.00  0.00    +0.000 OA
ATOM     21  O   UNL     1      65.724  66.819  71.716  0.00  0.00    +0.000 OA
ATOM     22  C   UNL     1      61.167  63.186  68.720  0.00  0.00    +0.000 A 
ATOM     23  C   UNL     1      60.531  62.669  68.801  0.00  0.00    +0.000 A 
ATOM     24  C   UNL     1      60.151  62.374  68.130  0.00  0.00    +0.000 A 
ATOM     25  C   UNL     1      60.407  62.597  67.380  0.00  0.00    +0.000 A 
ATOM     26  C   UNL     1      61.045  63.115  67.298  0.00  0.00    +0.000 A 
ATOM     27  C   UNL     1      61.425  63.410  67.969  0.00  0.00    +0.000 A 
ATOM     28  S   UNL     1      60.027  62.303  66.709  0.00  0.00    +0.000 S 
ATOM     29  O   UNL     1      59.647  62.008  66.039  0.00  0.00    +0.000 OA
ATOM     30  O   UNL     1      60.544  62.731  66.228  0.00  0.00    +0.000 OA
ATOM     31  O   UNL     1      59.511  61.875  67.189  0.00  0.00    +0.000 OA
ENDROOT
TORSDOF 0
ENDMDL
MODEL 5
REMARK VINA RESULT:   -13.783      3.659      5.486
REMARK INTER + INTRA:         -13.783
REMARK INTER:                 -13.783
REMARK INTRA:                   0.000
REMARK UNBOUND:                 0.000
ROOT
REMARK  Name = tartrazine
REMARK                            x       y       z     vdW  Elec       q    Type
REMARK                         _______ _______ _______ _____ _____    ______ ____
ATOM      1  O   UNL     1      61.301  63.136  71.042  0.00  0.00    +0.000 OA
ATOM      2  C   UNL     1      61.889  63.607  71.380  0.00  0.00    +0.000 C 
ATOM      3  O   UNL     1      61.993  63.614  72.197  0.00  0.00    +0.000 OA
ATOM      4  C   UNL     1      62.373  64.071  70.897  0.00  0.00    +0.000 A 
ATOM      5  N   UNL     1      62.980  64.566  71.154  0.00  0.00    +0.000 NA
ATOM      6  N   UNL     1      63.316  64.921  70.490  0.00  0.00    +0.000 N 
ATOM      7  C   UNL     1      62.917  64.645  69.823  0.00  0.00    +0.000 A 
ATOM      8  O   UNL     1      63.073  64.859  69.041  0.00  0.00    +0.000 OA
ATOM      9  C   UNL     1      62.333  64.119  70.075  0.00  0.00    +0.000 A 
ATOM     10  N   UNL     1      61.803  63.714  69.589  0.00  0.00    +0.000 NA
ATOM     11  N   UNL     1      61.829  63.819  68.772  0.00  0.00    +0.000 NA
ATOM     12  C   UNL     1      61.300  63.414  68.286  0.00  0.00    +0.000 A 
ATOM     13  C   UNL     1      61.327  63.519  67.468  0.00  0.00    +0.000 A 
ATOM     14  C   UNL     1      60.797  63.113  66.983  0.00  0.00    +0.000 A 
ATOM     15  C   UNL     1      60.241  62.603  67.316  0.00  0.00    +0.000 A 
ATOM     16  C   UNL     1      60.215  62.498  68.133  0.00  0.00    +0.000 A 
ATOM     17  C   UNL     1      60.744  62.903  68.618  0.00  0.00    +0.000 A 
ATOM     18  S   UNL     1      59.711  62.197  66.830  0.00  0.00    +0.000 S 
ATOM     19  O   UNL     1      59.181  61.791  66.344  0.00  0.00    +0.000 OA
ATOM     20  O   UNL     1      60.047  62.552  66.166  0.00  0.00    +0.000 OA
ATOM     21  O   UNL     1      59.375  61.841  67.494  0.00  0.00    +0.000 OA
ATOM     22  C   UNL     1      63.943  65.459  70.492  0.00  0.00    +0.000 A 
ATOM     23  C   UNL     1      64.289  65.684  71.205  0.00  0.00    +0.000 A 
ATOM     24  C   UNL     1      64.916  66.221  71.207  0.00  0.00    +0.000 A 
ATOM     25  C   UNL     1      65.195  66.532  70.497  0.00  0.00    +0.000 A 
ATOM     26  C   UNL     1      64.848  66.307  69.782  0.00  0.00    +0.000 A 
ATOM     27  C   UNL     1      64.222  65.769  69.780  0.00  0.00    +0.000 A 
ATOM     28  S   UNL     1      65.822  67.070  70.499  0.00  0.00    +0.000 S 
ATOM     29  O   UNL     1      66.448  67.607  70.502  0.00  0.00    +0.000 OA
ATOM     30  O   UNL     1      65.782  67.119  69.676  0.00  0.00    +0.000 OA
ATOM     31  O   UNL     1      65.861  67.020  71.321  0.00  0.00    +0.000 OA
ENDROOT
TORSDOF 0
ENDMDL
