MODEL 1
REMARK VINA RESULT:    -8.207      0.000      0.000
REMARK INTER + INTRA:          -8.207
REMARK INTER:                  -8.207
REMARK INTRA:                   0.000
REMARK UNBOUND:                 0.000
ROOT
REMARK  Name = taurolidine
REMARK                            x       y       z     vdW  Elec       q    Type
REMARK                         _______ _______ _______ _____ _____    ______ ____
ATOM      1  O   UNL     1      62.044  61.624  63.832  0.00  0.00    +0.000 OA
ATOM      2  S   UNL     1      62.020  61.972  64.581  0.00  0.00    +0.000 S 
ATOM      3  O   UNL     1      62.752  62.246  64.319  0.00  0.00    +0.000 OA
ATOM      4  C   UNL     1      61.295  61.576  64.582  0.00  0.00    +0.000 C 
ATOM      5  C   UNL     1      60.801  61.624  65.241  0.00  0.00    +0.000 C 
ATOM      6  N   UNL     1      61.031  62.066  65.898  0.00  0.00    +0.000 NA
ATOM      7  C   UNL     1      60.538  62.114  66.557  0.00  0.00    +0.000 C 
ATOM      8  N   UNL     1      60.767  62.556  67.214  0.00  0.00    +0.000 NA
ATOM      9  C   UNL     1      60.273  62.603  67.873  0.00  0.00    +0.000 C 
ATOM     10  C   UNL     1      60.503  63.045  68.530  0.00  0.00    +0.000 C 
ATOM     11  S   UNL     1      61.227  63.441  68.528  0.00  0.00    +0.000 S 
ATOM     12  O   UNL     1      60.951  63.651  69.277  0.00  0.00    +0.000 OA
ATOM     13  O   UNL     1      61.855  63.909  68.787  0.00  0.00    +0.000 OA
ATOM     14  N   UNL     1      61.721  63.394  67.870  0.00  0.00    +0.000 NA
ATOM     15  C   UNL     1      61.491  62.951  67.212  0.00  0.00    +0.000 C 
ATOM     16  C   UNL     1      61.756  62.461  65.896  0.00  0.00    +0.000 C 
ATOM     17  N   UNL     1      62.250  62.414  65.237  0.00  0.00    +0.000 NA
ENDROOT
TORSDOF 0
ENDMDL
MODEL 2
REMARK VINA RESULT:    -8.188      0.085      3.689
REMARK INTER + INTRA:          -8.188
REMARK INTER:                  -8.188
REMARK INTRA:                   0.000
REMARK UNBOUND:                 0.000
ROOT
REMARK  Name = taurolidine
REMARK                            x       y       z     vdW  Elec       q    Type
REMARK                         _______ _______ _______ _____ _____    ______ ____
ATOM      1  O   UNL     1      60.820  63.609  69.283  0.00  0.00    +0.000 OA
ATOM      2  S   UNL     1      61.114  63.405  68.539  0.00  0.00    +0.000 S 
ATOM      3  O   UNL     1      61.737  63.868  68.817  0.00  0.00    +0.000 OA
ATOM      4  C   UNL     1      60.388  63.013  68.520  0.00  0.00    +0.000 C 
ATOM      5  C   UNL     1      60.172  62.578  67.853  0.00  0.00    +0.000 C 
ATOM      6  N   UNL     1      60.682  62.535  67.205  0.00  0.00    +0.000 NA
ATOM      7  C   UNL     1      60.466  62.101  66.539  0.00  0.00    +0.000 C 
ATOM      8  N   UNL     1      60.975  62.058  65.891  0.00  0.00    +0.000 NA
ATOM      9  C   UNL     1      60.759  61.623  65.224  0.00  0.00    +0.000 C 
ATOM     10  C   UNL     1      61.268  61.580  64.578  0.00  0.00    +0.000 C 
ATOM     11  S   UNL     1      61.994  61.973  64.596  0.00  0.00    +0.000 S 
ATOM     12  O   UNL     1      62.035  61.633  63.846  0.00  0.00    +0.000 OA
ATOM     13  O   UNL     1      62.733  62.247  64.355  0.00  0.00    +0.000 OA
ATOM     14  N   UNL     1      62.210  62.408  65.263  0.00  0.00    +0.000 NA
ATOM     15  C   UNL     1      61.700  62.451  65.911  0.00  0.00    +0.000 C 
ATOM     16  C   UNL     1      61.407  62.928  67.225  0.00  0.00    +0.000 C 
ATOM     17  N   UNL     1      61.623  63.363  67.892  0.00  0.00    +0.000 NA
ENDROOT
TORSDOF 0
ENDMDL
MODEL 3
REMARK VINA RESULT:    -7.398      1.829      2.461
REMARK INTER + INTRA:          -7.398
REMARK INTER:                  -7.398
REMARK INTRA:                   0.000
REMARK UNBOUND:                 0.000
ROOT
REMARK  Name = taurolidine
REMARK                            x       y       z     vdW  Elec       q    Type
REMARK                         _______ _______ _______ _____ _____    ______ ____
ATOM      1  O   UNL     1      59.799  61.938  65.721  0.00  0.00    +0.000 OA
ATOM      2  S   UNL     1      59.879  62.235  66.487  0.00  0.00    +0.000 S 
ATOM      3  O   UNL     1      59.089  62.000  66.508  0.00  0.00    +0.000 OA
ATOM      4  C   UNL     1      60.642  62.366  66.200  0.00  0.00    +0.000 C 
ATOM      5  C   UNL     1      61.211  62.714  66.686  0.00  0.00    +0.000 C 
ATOM      6  N   UNL     1      61.017  62.929  67.460  0.00  0.00    +0.000 NA
ATOM      7  C   UNL     1      61.586  63.276  67.945  0.00  0.00    +0.000 C 
ATOM      8  N   UNL     1      61.393  63.492  68.718  0.00  0.00    +0.000 NA
ATOM      9  C   UNL     1      61.962  63.839  69.204  0.00  0.00    +0.000 C 
ATOM     10  C   UNL     1      61.768  64.055  69.976  0.00  0.00    +0.000 C 
ATOM     11  S   UNL     1      61.006  63.923  70.263  0.00  0.00    +0.000 S 
ATOM     12  O   UNL     1      61.352  64.266  70.928  0.00  0.00    +0.000 OA
ATOM     13  O   UNL     1      60.364  63.911  70.780  0.00  0.00    +0.000 OA
ATOM     14  N   UNL     1      60.437  63.576  69.776  0.00  0.00    +0.000 NA
ATOM     15  C   UNL     1      60.630  63.360  69.003  0.00  0.00    +0.000 C 
ATOM     16  C   UNL     1      60.255  62.798  67.745  0.00  0.00    +0.000 C 
ATOM     17  N   UNL     1      59.686  62.450  67.259  0.00  0.00    +0.000 NA
ENDROOT
TORSDOF 0
ENDMDL
MODEL 4
REMARK VINA RESULT:    -7.368      1.798      4.171
REMARK INTER + INTRA:          -7.368
REMARK INTER:                  -7.368
REMARK INTRA:                   0.000
REMARK UNBOUND:                 0.000
ROOT
REMARK  Name = taurolidine
REMARK                            x       y       z     vdW  Elec       q    Type
REMARK                         _______ _______ _______ _____ _____    ______ ____
ATOM      1  O   UNL     1      61.755  64.311  70.721  0.00  0.00    +0.000 OA
ATOM      2  S   UNL     1      61.345  63.952  70.101  0.00  0.00    +0.000 S 
ATOM      3  O   UNL     1      60.761  63.941  70.683  0.00  0.00    +0.000 OA
ATOM      4  C   UNL     1      62.072  64.088  69.734  0.00  0.00    +0.000 C 
ATOM      5  C   UNL     1      62.186  63.860  68.950  0.00  0.00    +0.000 C 
ATOM      6  N   UNL     1      61.573  63.498  68.531  0.00  0.00    +0.000 NA
ATOM      7  C   UNL     1      61.687  63.271  67.747  0.00  0.00    +0.000 C 
ATOM      8  N   UNL     1      61.075  62.908  67.329  0.00  0.00    +0.000 NA
ATOM      9  C   UNL     1      61.190  62.681  66.544  0.00  0.00    +0.000 C 
ATOM     10  C   UNL     1      60.578  62.319  66.127  0.00  0.00    +0.000 C 
ATOM     11  S   UNL     1      59.851  62.183  66.494  0.00  0.00    +0.000 S 
ATOM     12  O   UNL     1      59.694  61.872  65.747  0.00  0.00    +0.000 OA
ATOM     13  O   UNL     1      59.071  61.940  66.601  0.00  0.00    +0.000 OA
ATOM     14  N   UNL     1      59.737  62.410  67.279  0.00  0.00    +0.000 NA
ATOM     15  C   UNL     1      60.350  62.773  67.697  0.00  0.00    +0.000 C 
ATOM     16  C   UNL     1      60.847  63.363  68.899  0.00  0.00    +0.000 C 
ATOM     17  N   UNL     1      60.733  63.590  69.684  0.00  0.00    +0.000 NA
ENDROOT
TORSDOF 0
ENDMDL
MODEL 5
REMARK VINA RESULT:    -7.309      4.770      6.457
REMARK INTER + INTRA:          -7.309
REMARK INTER:                  -7.309
REMARK INTRA:                   0.000
REMARK UNBOUND:                 0.000
ROOT
REMARK  Name = taurolidine
REMARK                            x       y       z     vdW  Elec       q    Type
REMARK                         _______ _______ _______ _____ _____    ______ ____
ATOM      1  O   UNL     1      66.301  67.827  70.556  0.00  0.00    +0.000 OA
ATOM      2  S   UNL     1      65.752  67.256  70.323  0.00  0.00    +0.000 S 
ATOM      3  O   UNL     1      66.090  67.436  69.593  0.00  0.00    +0.000 OA
ATOM      4  C   UNL     1      65.605  67.275  71.135  0.00  0.00    +0.000 C 
ATOM      5  C   UNL     1      65.026  66.786  71.461  0.00  0.00    +0.000 C 
ATOM      6  N   UNL     1      64.594  66.277  70.974  0.00  0.00    +0.000 NA
ATOM      7  C   UNL     1      64.016  65.788  71.299  0.00  0.00    +0.000 C 
ATOM      8  N   UNL     1      63.584  65.280  70.814  0.00  0.00    +0.000 NA
ATOM      9  C   UNL     1      63.005  64.791  71.139  0.00  0.00    +0.000 C 
ATOM     10  C   UNL     1      62.574  64.283  70.653  0.00  0.00    +0.000 C 
ATOM     11  S   UNL     1      62.721  64.264  69.841  0.00  0.00    +0.000 S 
ATOM     12  O   UNL     1      62.121  63.701  69.891  0.00  0.00    +0.000 OA
ATOM     13  O   UNL     1      62.660  64.050  69.047  0.00  0.00    +0.000 OA
ATOM     14  N   UNL     1      63.300  64.754  69.516  0.00  0.00    +0.000 NA
ATOM     15  C   UNL     1      63.732  65.262  70.002  0.00  0.00    +0.000 C 
ATOM     16  C   UNL     1      64.742  66.259  70.163  0.00  0.00    +0.000 C 
ATOM     17  N   UNL     1      65.321  66.749  69.837  0.00  0.00    +0.000 NA
ENDROOT
TORSDOF 0
ENDMDL
MODEL 6
REMARK VINA RESULT:    -7.217      3.633      4.609
REMARK INTER + INTRA:          -7.217
REMARK INTER:                  -7.217
REMARK INTRA:                   0.000
REMARK UNBOUND:                 0.000
ROOT
REMARK  Name = taurolidine
REMARK                            x       y       z     vdW  Elec       q    Type
REMARK                         _______ _______ _______ _____ _____    ______ ____
ATOM      1  O   UNL     1      60.710  61.577  69.664  0.00  0.00    +0.000 OA
ATOM      2  S   UNL     1      60.531  62.373  69.535  0.00  0.00    +0.000 S 
ATOM      3  O   UNL     1      60.587  62.111  68.755  0.00  0.00    +0.000 OA
ATOM      4  C   UNL     1      60.537  62.358  70.360  0.00  0.00    +0.000 C 
ATOM      5  C   UNL     1      60.383  63.048  70.786  0.00  0.00    +0.000 C 
ATOM      6  N   UNL     1      60.223  63.752  70.386  0.00  0.00    +0.000 NA
ATOM      7  C   UNL     1      60.069  64.441  70.811  0.00  0.00    +0.000 C 
ATOM      8  N   UNL     1      59.909  65.146  70.413  0.00  0.00    +0.000 NA
ATOM      9  C   UNL     1      59.755  65.835  70.838  0.00  0.00    +0.000 C 
ATOM     10  C   UNL     1      59.595  66.539  70.439  0.00  0.00    +0.000 C 
ATOM     11  S   UNL     1      59.589  66.553  69.614  0.00  0.00    +0.000 S 
ATOM     12  O   UNL     1      59.411  67.343  69.772  0.00  0.00    +0.000 OA
ATOM     13  O   UNL     1      59.521  66.842  68.844  0.00  0.00    +0.000 OA
ATOM     14  N   UNL     1      59.743  65.864  69.188  0.00  0.00    +0.000 NA
ATOM     15  C   UNL     1      59.903  65.159  69.588  0.00  0.00    +0.000 C 
ATOM     16  C   UNL     1      60.217  63.766  69.562  0.00  0.00    +0.000 C 
ATOM     17  N   UNL     1      60.371  63.076  69.136  0.00  0.00    +0.000 NA
ENDROOT
TORSDOF 0
ENDMDL
MODEL 7
REMARK VINA RESULT:    -7.121      2.377      3.365
REMARK INTER + INTRA:          -7.121
REMARK INTER:                  -7.121
REMARK INTRA:                   0.000
REMARK UNBOUND:                 0.000
ROOT
REMARK  Name = taurolidine
REMARK                            x       y       z     vdW  Elec       q    Type
REMARK                         _______ _______ _______ _____ _____    ______ ____
ATOM      1  O   UNL     1      60.797  62.409  66.946  0.00  0.00    +0.000 OA
ATOM      2  S   UNL     1      61.043  62.737  67.662  0.00  0.00    +0.000 S 
ATOM      3  O   UNL     1      61.417  63.249  67.135  0.00  0.00    +0.000 OA
ATOM      4  C   UNL     1      60.583  62.111  67.940  0.00  0.00    +0.000 C 
ATOM      5  C   UNL     1      60.499  61.990  68.752  0.00  0.00    +0.000 C 
ATOM      6  N   UNL     1      60.874  62.495  69.286  0.00  0.00    +0.000 NA
ATOM      7  C   UNL     1      60.790  62.374  70.096  0.00  0.00    +0.000 C 
ATOM      8  N   UNL     1      61.166  62.879  70.630  0.00  0.00    +0.000 NA
ATOM      9  C   UNL     1      61.082  62.758  71.442  0.00  0.00    +0.000 C 
ATOM     10  C   UNL     1      61.457  63.262  71.975  0.00  0.00    +0.000 C 
ATOM     11  S   UNL     1      61.917  63.889  71.697  0.00  0.00    +0.000 S 
ATOM     12  O   UNL     1      62.003  63.998  72.510  0.00  0.00    +0.000 OA
ATOM     13  O   UNL     1      62.406  64.552  71.701  0.00  0.00    +0.000 OA
ATOM     14  N   UNL     1      62.001  64.010  70.885  0.00  0.00    +0.000 NA
ATOM     15  C   UNL     1      61.625  63.504  70.351  0.00  0.00    +0.000 C 
ATOM     16  C   UNL     1      61.334  63.121  69.007  0.00  0.00    +0.000 C 
ATOM     17  N   UNL     1      61.418  63.242  68.195  0.00  0.00    +0.000 NA
ENDROOT
TORSDOF 0
ENDMDL
MODEL 8
REMARK VINA RESULT:    -7.098      2.344      4.844
REMARK INTER + INTRA:          -7.098
REMARK INTER:                  -7.098
REMARK INTRA:                   0.000
REMARK UNBOUND:                 0.000
ROOT
REMARK  Name = taurolidine
REMARK                            x       y       z     vdW  Elec       q    Type
REMARK                         _______ _______ _______ _____ _____    ______ ____
ATOM      1  O   UNL     1      59.553  66.006  71.130  0.00  0.00    +0.000 OA
ATOM      2  S   UNL     1      59.737  65.574  70.451  0.00  0.00    +0.000 S 
ATOM      3  O   UNL     1      59.588  66.313  70.115  0.00  0.00    +0.000 OA
ATOM      4  C   UNL     1      59.821  64.986  71.023  0.00  0.00    +0.000 C 
ATOM      5  C   UNL     1      60.038  64.222  70.800  0.00  0.00    +0.000 C 
ATOM      6  N   UNL     1      60.169  64.046  70.004  0.00  0.00    +0.000 NA
ATOM      7  C   UNL     1      60.385  63.283  69.781  0.00  0.00    +0.000 C 
ATOM      8  N   UNL     1      60.517  63.107  68.985  0.00  0.00    +0.000 NA
ATOM      9  C   UNL     1      60.734  62.343  68.762  0.00  0.00    +0.000 C 
ATOM     10  C   UNL     1      60.865  62.168  67.967  0.00  0.00    +0.000 C 
ATOM     11  S   UNL     1      60.781  62.756  67.395  0.00  0.00    +0.000 S 
ATOM     12  O   UNL     1      60.993  62.120  66.915  0.00  0.00    +0.000 OA
ATOM     13  O   UNL     1      60.770  63.124  66.657  0.00  0.00    +0.000 OA
ATOM     14  N   UNL     1      60.564  63.520  67.618  0.00  0.00    +0.000 NA
ATOM     15  C   UNL     1      60.432  63.696  68.414  0.00  0.00    +0.000 C 
ATOM     16  C   UNL     1      60.084  64.635  69.433  0.00  0.00    +0.000 C 
ATOM     17  N   UNL     1      59.868  65.399  69.656  0.00  0.00    +0.000 NA
ENDROOT
TORSDOF 0
ENDMDL
MODEL 9
REMARK VINA RESULT:    -7.044      2.605      4.607
REMARK INTER + INTRA:          -7.044
REMARK INTER:                  -7.044
REMARK INTRA:                   0.000
REMARK UNBOUND:                 0.000
ROOT
REMARK  Name = taurolidine
REMARK                            x       y       z     vdW  Elec       q    Type
REMARK                         _______ _______ _______ _____ _____    ______ ____
ATOM      1  O   UNL     1      64.339  65.089  70.956  0.00  0.00    +0.000 OA
ATOM      2  S   UNL     1      63.858  64.743  70.382  0.00  0.00    +0.000 S 
ATOM      3  O   UNL     1      64.600  64.602  70.051  0.00  0.00    +0.000 OA
ATOM      4  C   UNL     1      63.283  65.005  70.913  0.00  0.00    +0.000 C 
ATOM      5  C   UNL     1      62.485  64.871  70.755  0.00  0.00    +0.000 C 
ATOM      6  N   UNL     1      62.260  64.476  70.066  0.00  0.00    +0.000 NA
ATOM      7  C   UNL     1      61.463  64.343  69.908  0.00  0.00    +0.000 C 
ATOM      8  N   UNL     1      61.238  63.948  69.219  0.00  0.00    +0.000 NA
ATOM      9  C   UNL     1      60.440  63.815  69.061  0.00  0.00    +0.000 C 
ATOM     10  C   UNL     1      60.216  63.421  68.372  0.00  0.00    +0.000 C 
ATOM     11  S   UNL     1      60.791  63.159  67.841  0.00  0.00    +0.000 S 
ATOM     12  O   UNL     1      60.110  62.904  67.451  0.00  0.00    +0.000 OA
ATOM     13  O   UNL     1      61.129  62.809  67.175  0.00  0.00    +0.000 OA
ATOM     14  N   UNL     1      61.590  63.292  67.999  0.00  0.00    +0.000 NA
ATOM     15  C   UNL     1      61.814  63.687  68.688  0.00  0.00    +0.000 C 
ATOM     16  C   UNL     1      62.836  64.215  69.535  0.00  0.00    +0.000 C 
ATOM     17  N   UNL     1      63.634  64.349  69.693  0.00  0.00    +0.000 NA
ENDROOT
TORSDOF 0
ENDMDL
