MODEL 1
REMARK VINA RESULT:   -13.319      0.000      0.000
REMARK INTER + INTRA:         -13.319
REMARK INTER:                 -13.319
REMARK INTRA:                   0.000
REMARK UNBOUND:                 0.000
ROOT
REMARK  Name = tebipenem pivoxil
REMARK                            x       y       z     vdW  Elec       q    Type
REMARK                         _______ _______ _______ _____ _____    ______ ____
ATOM      1  C   UNL     1      58.430  65.739  73.081  0.00  0.00    +0.000 C 
ATOM      2  C   UNL     1      58.813  65.415  72.427  0.00  0.00    +0.000 C 
ATOM      3  O   UNL     1      58.425  64.860  71.955  0.00  0.00    +0.000 OA
ATOM      4  C   UNL     1      59.583  65.645  72.243  0.00  0.00    +0.000 C 
ATOM      5  C   UNL     1      60.125  65.449  71.653  0.00  0.00    +0.000 C 
ATOM      6  C   UNL     1      60.472  65.101  70.990  0.00  0.00    +0.000 C 
ATOM      7  C   UNL     1      60.120  64.545  70.494  0.00  0.00    +0.000 C 
ATOM      8  C   UNL     1      61.234  65.409  70.910  0.00  0.00    +0.000 C 
ATOM      9  S   UNL     1      61.777  65.212  70.321  0.00  0.00    +0.000 S 
ATOM     10  C   UNL     1      61.573  64.662  69.740  0.00  0.00    +0.000 C 
ATOM     11  C   UNL     1      60.905  64.208  69.574  0.00  0.00    +0.000 C 
ATOM     12  N   UNL     1      61.288  63.884  68.919  0.00  0.00    +0.000 N 
ATOM     13  C   UNL     1      61.956  64.338  69.085  0.00  0.00    +0.000 C 
ATOM     14  C   UNL     1      61.084  63.334  68.339  0.00  0.00    +0.000 C 
ATOM     15  N   UNL     1      60.365  62.937  68.277  0.00  0.00    +0.000 NA
ATOM     16  C   UNL     1      60.402  62.442  67.618  0.00  0.00    +0.000 C 
ATOM     17  C   UNL     1      61.144  62.533  67.273  0.00  0.00    +0.000 C 
ATOM     18  S   UNL     1      61.567  63.084  67.717  0.00  0.00    +0.000 S 
ATOM     19  C   UNL     1      61.358  65.946  71.524  0.00  0.00    +0.000 C 
ATOM     20  N   UNL     1      60.672  65.971  71.983  0.00  0.00    +0.000 N 
ATOM     21  C   UNL     1      60.130  66.167  72.573  0.00  0.00    +0.000 C 
ATOM     22  O   UNL     1      60.133  66.675  73.222  0.00  0.00    +0.000 OA
ATOM     23  C   UNL     1      62.046  66.382  71.655  0.00  0.00    +0.000 C 
ATOM     24  O   UNL     1      62.090  66.901  72.295  0.00  0.00    +0.000 OA
ATOM     25  O   UNL     1      62.690  66.298  71.147  0.00  0.00    +0.000 OA
ATOM     26  C   UNL     1      63.378  66.734  71.278  0.00  0.00    +0.000 C 
ATOM     27  O   UNL     1      64.023  66.651  70.770  0.00  0.00    +0.000 OA
ATOM     28  C   UNL     1      64.711  67.087  70.901  0.00  0.00    +0.000 C 
ATOM     29  O   UNL     1      64.754  67.606  71.541  0.00  0.00    +0.000 OA
ATOM     30  C   UNL     1      65.356  67.004  70.393  0.00  0.00    +0.000 C 
ATOM     31  C   UNL     1      66.000  66.920  69.884  0.00  0.00    +0.000 C 
ATOM     32  C   UNL     1      65.777  67.555  70.838  0.00  0.00    +0.000 C 
ATOM     33  C   UNL     1      64.933  66.452  69.948  0.00  0.00    +0.000 C 
ENDROOT
TORSDOF 0
ENDMDL
MODEL 2
REMARK VINA RESULT:   -11.288      2.587      3.515
REMARK INTER + INTRA:         -11.288
REMARK INTER:                 -11.288
REMARK INTRA:                   0.000
REMARK UNBOUND:                 0.000
ROOT
REMARK  Name = tebipenem pivoxil
REMARK                            x       y       z     vdW  Elec       q    Type
REMARK                         _______ _______ _______ _____ _____    ______ ____
ATOM      1  C   UNL     1      62.013  60.787  72.809  0.00  0.00    +0.000 C 
ATOM      2  C   UNL     1      61.903  61.058  72.038  0.00  0.00    +0.000 C 
ATOM      3  O   UNL     1      61.975  60.535  71.403  0.00  0.00    +0.000 OA
ATOM      4  C   UNL     1      61.721  61.850  71.900  0.00  0.00    +0.000 C 
ATOM      5  C   UNL     1      61.576  62.307  71.229  0.00  0.00    +0.000 C 
ATOM      6  C   UNL     1      61.474  62.537  70.443  0.00  0.00    +0.000 C 
ATOM      7  C   UNL     1      61.537  62.048  69.782  0.00  0.00    +0.000 C 
ATOM      8  C   UNL     1      61.297  63.344  70.434  0.00  0.00    +0.000 C 
ATOM      9  S   UNL     1      61.152  63.801  69.763  0.00  0.00    +0.000 S 
ATOM     10  C   UNL     1      61.178  63.454  69.015  0.00  0.00    +0.000 C 
ATOM     11  C   UNL     1      61.325  62.695  68.727  0.00  0.00    +0.000 C 
ATOM     12  N   UNL     1      61.215  62.965  67.956  0.00  0.00    +0.000 N 
ATOM     13  C   UNL     1      61.068  63.724  68.243  0.00  0.00    +0.000 C 
ATOM     14  C   UNL     1      61.241  62.618  67.208  0.00  0.00    +0.000 C 
ATOM     15  N   UNL     1      61.403  61.827  67.045  0.00  0.00    +0.000 NA
ATOM     16  C   UNL     1      61.371  61.722  66.227  0.00  0.00    +0.000 C 
ATOM     17  C   UNL     1      61.190  62.450  65.884  0.00  0.00    +0.000 C 
ATOM     18  S   UNL     1      61.109  63.004  66.490  0.00  0.00    +0.000 S 
ATOM     19  C   UNL     1      61.290  63.611  71.214  0.00  0.00    +0.000 C 
ATOM     20  N   UNL     1      61.463  62.971  71.705  0.00  0.00    +0.000 N 
ATOM     21  C   UNL     1      61.607  62.514  72.377  0.00  0.00    +0.000 C 
ATOM     22  O   UNL     1      61.629  62.660  73.188  0.00  0.00    +0.000 OA
ATOM     23  C   UNL     1      61.138  64.384  71.460  0.00  0.00    +0.000 C 
ATOM     24  O   UNL     1      61.150  64.571  72.263  0.00  0.00    +0.000 OA
ATOM     25  O   UNL     1      60.973  64.969  70.902  0.00  0.00    +0.000 OA
ATOM     26  C   UNL     1      60.820  65.742  71.148  0.00  0.00    +0.000 C 
ATOM     27  O   UNL     1      60.655  66.327  70.591  0.00  0.00    +0.000 OA
ATOM     28  C   UNL     1      60.503  67.100  70.837  0.00  0.00    +0.000 C 
ATOM     29  O   UNL     1      60.515  67.287  71.640  0.00  0.00    +0.000 OA
ATOM     30  C   UNL     1      60.338  67.686  70.279  0.00  0.00    +0.000 C 
ATOM     31  C   UNL     1      60.173  68.271  69.722  0.00  0.00    +0.000 C 
ATOM     32  C   UNL     1      60.257  68.239  70.885  0.00  0.00    +0.000 C 
ATOM     33  C   UNL     1      60.419  67.131  69.674  0.00  0.00    +0.000 C 
ENDROOT
TORSDOF 0
ENDMDL
MODEL 3
REMARK VINA RESULT:   -11.254     15.602     17.633
REMARK INTER + INTRA:         -11.254
REMARK INTER:                 -11.254
REMARK INTRA:                   0.000
REMARK UNBOUND:                 0.000
ROOT
REMARK  Name = tebipenem pivoxil
REMARK                            x       y       z     vdW  Elec       q    Type
REMARK                         _______ _______ _______ _____ _____    ______ ____
ATOM      1  C   UNL     1      62.771  69.016  57.295  0.00  0.00    +0.000 C 
ATOM      2  C   UNL     1      62.659  68.403  56.755  0.00  0.00    +0.000 C 
ATOM      3  O   UNL     1      62.673  67.619  57.012  0.00  0.00    +0.000 OA
ATOM      4  C   UNL     1      62.532  68.572  55.958  0.00  0.00    +0.000 C 
ATOM      5  C   UNL     1      62.403  68.122  55.279  0.00  0.00    +0.000 C 
ATOM      6  C   UNL     1      62.295  67.480  54.771  0.00  0.00    +0.000 C 
ATOM      7  C   UNL     1      62.302  66.685  54.988  0.00  0.00    +0.000 C 
ATOM      8  C   UNL     1      62.179  67.774  54.009  0.00  0.00    +0.000 C 
ATOM      9  S   UNL     1      62.049  67.324  53.330  0.00  0.00    +0.000 S 
ATOM     10  C   UNL     1      62.028  66.501  53.380  0.00  0.00    +0.000 C 
ATOM     11  C   UNL     1      62.109  65.950  53.989  0.00  0.00    +0.000 C 
ATOM     12  N   UNL     1      61.997  65.336  53.448  0.00  0.00    +0.000 N 
ATOM     13  C   UNL     1      61.915  65.887  52.840  0.00  0.00    +0.000 C 
ATOM     14  C   UNL     1      61.975  64.513  53.498  0.00  0.00    +0.000 C 
ATOM     15  N   UNL     1      62.072  64.065  54.183  0.00  0.00    +0.000 NA
ATOM     16  C   UNL     1      62.009  63.269  53.979  0.00  0.00    +0.000 C 
ATOM     17  C   UNL     1      61.873  63.224  53.167  0.00  0.00    +0.000 C 
ATOM     18  S   UNL     1      61.851  63.993  52.869  0.00  0.00    +0.000 S 
ATOM     19  C   UNL     1      62.215  68.597  54.045  0.00  0.00    +0.000 C 
ATOM     20  N   UNL     1      62.353  68.813  54.830  0.00  0.00    +0.000 N 
ATOM     21  C   UNL     1      62.483  69.263  55.509  0.00  0.00    +0.000 C 
ATOM     22  O   UNL     1      62.539  70.069  55.672  0.00  0.00    +0.000 OA
ATOM     23  C   UNL     1      62.128  69.115  53.409  0.00  0.00    +0.000 C 
ATOM     24  O   UNL     1      62.178  69.930  53.530  0.00  0.00    +0.000 OA
ATOM     25  O   UNL     1      61.991  68.818  52.652  0.00  0.00    +0.000 OA
ATOM     26  C   UNL     1      61.904  69.336  52.015  0.00  0.00    +0.000 C 
ATOM     27  O   UNL     1      61.767  69.038  51.258  0.00  0.00    +0.000 OA
ATOM     28  C   UNL     1      61.680  69.556  50.621  0.00  0.00    +0.000 C 
ATOM     29  O   UNL     1      61.730  70.371  50.742  0.00  0.00    +0.000 OA
ATOM     30  C   UNL     1      61.543  69.260  49.863  0.00  0.00    +0.000 C 
ATOM     31  C   UNL     1      61.406  68.962  49.106  0.00  0.00    +0.000 C 
ATOM     32  C   UNL     1      61.522  70.028  49.566  0.00  0.00    +0.000 C 
ATOM     33  C   UNL     1      61.565  68.491  50.161  0.00  0.00    +0.000 C 
ENDROOT
TORSDOF 0
ENDMDL
MODEL 4
REMARK VINA RESULT:   -11.254     24.596     25.598
REMARK INTER + INTRA:         -11.254
REMARK INTER:                 -11.254
REMARK INTRA:                   0.000
REMARK UNBOUND:                 0.000
ROOT
REMARK  Name = tebipenem pivoxil
REMARK                            x       y       z     vdW  Elec       q    Type
REMARK                         _______ _______ _______ _____ _____    ______ ____
ATOM      1  C   UNL     1      72.438  81.685  54.838  0.00  0.00    +0.000 C 
ATOM      2  C   UNL     1      72.210  81.355  54.117  0.00  0.00    +0.000 C 
ATOM      3  O   UNL     1      72.779  81.036  53.612  0.00  0.00    +0.000 OA
ATOM      4  C   UNL     1      71.415  81.345  53.901  0.00  0.00    +0.000 C 
ATOM      5  C   UNL     1      70.991  81.073  53.247  0.00  0.00    +0.000 C 
ATOM      6  C   UNL     1      70.805  80.734  52.518  0.00  0.00    +0.000 C 
ATOM      7  C   UNL     1      71.342  80.405  51.986  0.00  0.00    +0.000 C 
ATOM      8  C   UNL     1      69.988  80.782  52.415  0.00  0.00    +0.000 C 
ATOM      9  S   UNL     1      69.565  80.510  51.762  0.00  0.00    +0.000 S 
ATOM     10  C   UNL     1      69.962  80.150  51.134  0.00  0.00    +0.000 C 
ATOM     11  C   UNL     1      70.750  79.972  50.967  0.00  0.00    +0.000 C 
ATOM     12  N   UNL     1      70.522  79.642  50.246  0.00  0.00    +0.000 N 
ATOM     13  C   UNL     1      69.734  79.821  50.413  0.00  0.00    +0.000 C 
ATOM     14  C   UNL     1      70.919  79.282  49.618  0.00  0.00    +0.000 C 
ATOM     15  N   UNL     1      71.732  79.158  49.567  0.00  0.00    +0.000 NA
ATOM     16  C   UNL     1      71.888  78.783  48.849  0.00  0.00    +0.000 C 
ATOM     17  C   UNL     1      71.171  78.676  48.456  0.00  0.00    +0.000 C 
ATOM     18  S   UNL     1      70.571  78.984  48.932  0.00  0.00    +0.000 S 
ATOM     19  C   UNL     1      69.669  81.151  53.080  0.00  0.00    +0.000 C 
ATOM     20  N   UNL     1      70.289  81.331  53.595  0.00  0.00    +0.000 N 
ATOM     21  C   UNL     1      70.712  81.603  54.249  0.00  0.00    +0.000 C 
ATOM     22  O   UNL     1      70.515  81.978  54.956  0.00  0.00    +0.000 OA
ATOM     23  C   UNL     1      68.870  81.312  53.209  0.00  0.00    +0.000 C 
ATOM     24  O   UNL     1      68.631  81.686  53.905  0.00  0.00    +0.000 OA
ATOM     25  O   UNL     1      68.310  81.099  52.642  0.00  0.00    +0.000 OA
ATOM     26  C   UNL     1      67.511  81.260  52.770  0.00  0.00    +0.000 C 
ATOM     27  O   UNL     1      66.951  81.047  52.203  0.00  0.00    +0.000 OA
ATOM     28  C   UNL     1      66.152  81.208  52.332  0.00  0.00    +0.000 C 
ATOM     29  O   UNL     1      65.913  81.582  53.027  0.00  0.00    +0.000 OA
ATOM     30  C   UNL     1      65.591  80.996  51.765  0.00  0.00    +0.000 C 
ATOM     31  C   UNL     1      65.032  80.783  51.198  0.00  0.00    +0.000 C 
ATOM     32  C   UNL     1      64.993  81.304  52.241  0.00  0.00    +0.000 C 
ATOM     33  C   UNL     1      66.191  80.687  51.290  0.00  0.00    +0.000 C 
ENDROOT
TORSDOF 0
ENDMDL
MODEL 5
REMARK VINA RESULT:   -11.126      1.915      5.097
REMARK INTER + INTRA:         -11.126
REMARK INTER:                 -11.126
REMARK INTRA:                   0.000
REMARK UNBOUND:                 0.000
ROOT
REMARK  Name = tebipenem pivoxil
REMARK                            x       y       z     vdW  Elec       q    Type
REMARK                         _______ _______ _______ _____ _____    ______ ____
ATOM      1  C   UNL     1      61.193  62.373  66.821  0.00  0.00    +0.000 C 
ATOM      2  C   UNL     1      61.622  62.916  67.269  0.00  0.00    +0.000 C 
ATOM      3  O   UNL     1      62.419  63.051  67.101  0.00  0.00    +0.000 OA
ATOM      4  C   UNL     1      61.256  63.325  67.884  0.00  0.00    +0.000 C 
ATOM      5  C   UNL     1      61.498  63.890  68.434  0.00  0.00    +0.000 C 
ATOM      6  C   UNL     1      61.963  64.425  68.858  0.00  0.00    +0.000 C 
ATOM      7  C   UNL     1      62.760  64.588  68.723  0.00  0.00    +0.000 C 
ATOM      8  C   UNL     1      61.490  64.767  69.442  0.00  0.00    +0.000 C 
ATOM      9  S   UNL     1      61.731  65.333  69.991  0.00  0.00    +0.000 S 
ATOM     10  C   UNL     1      62.511  65.604  69.988  0.00  0.00    +0.000 C 
ATOM     11  C   UNL     1      63.182  65.446  69.536  0.00  0.00    +0.000 C 
ATOM     12  N   UNL     1      63.612  65.989  69.984  0.00  0.00    +0.000 N 
ATOM     13  C   UNL     1      62.940  66.147  70.436  0.00  0.00    +0.000 C 
ATOM     14  C   UNL     1      64.391  66.261  69.980  0.00  0.00    +0.000 C 
ATOM     15  N   UNL     1      64.987  66.020  69.464  0.00  0.00    +0.000 NA
ATOM     16  C   UNL     1      65.675  66.432  69.658  0.00  0.00    +0.000 C 
ATOM     17  C   UNL     1      65.504  66.927  70.294  0.00  0.00    +0.000 C 
ATOM     18  S   UNL     1      64.711  66.822  70.494  0.00  0.00    +0.000 S 
ATOM     19  C   UNL     1      60.733  64.445  69.378  0.00  0.00    +0.000 C 
ATOM     20  N   UNL     1      60.738  63.903  68.755  0.00  0.00    +0.000 N 
ATOM     21  C   UNL     1      60.496  63.338  68.205  0.00  0.00    +0.000 C 
ATOM     22  O   UNL     1      59.789  62.947  68.044  0.00  0.00    +0.000 OA
ATOM     23  C   UNL     1      60.085  64.632  69.853  0.00  0.00    +0.000 C 
ATOM     24  O   UNL     1      59.359  64.263  69.724  0.00  0.00    +0.000 OA
ATOM     25  O   UNL     1      60.164  65.188  70.458  0.00  0.00    +0.000 OA
ATOM     26  C   UNL     1      59.516  65.374  70.933  0.00  0.00    +0.000 C 
ATOM     27  O   UNL     1      59.595  65.930  71.538  0.00  0.00    +0.000 OA
ATOM     28  C   UNL     1      58.946  66.117  72.013  0.00  0.00    +0.000 C 
ATOM     29  O   UNL     1      58.220  65.748  71.884  0.00  0.00    +0.000 OA
ATOM     30  C   UNL     1      59.024  66.673  72.618  0.00  0.00    +0.000 C 
ATOM     31  C   UNL     1      59.103  67.228  73.222  0.00  0.00    +0.000 C 
ATOM     32  C   UNL     1      58.232  66.567  72.817  0.00  0.00    +0.000 C 
ATOM     33  C   UNL     1      59.818  66.778  72.418  0.00  0.00    +0.000 C 
ENDROOT
TORSDOF 0
ENDMDL
MODEL 6
REMARK VINA RESULT:   -10.492     16.025     18.180
REMARK INTER + INTRA:         -10.492
REMARK INTER:                 -10.492
REMARK INTRA:                   0.000
REMARK UNBOUND:                 0.000
ROOT
REMARK  Name = tebipenem pivoxil
REMARK                            x       y       z     vdW  Elec       q    Type
REMARK                         _______ _______ _______ _____ _____    ______ ____
ATOM      1  C   UNL     1      62.368  70.393  55.618  0.00  0.00    +0.000 C 
ATOM      2  C   UNL     1      62.266  70.103  54.853  0.00  0.00    +0.000 C 
ATOM      3  O   UNL     1      62.195  70.626  54.219  0.00  0.00    +0.000 OA
ATOM      4  C   UNL     1      62.235  69.289  54.721  0.00  0.00    +0.000 C 
ATOM      5  C   UNL     1      62.143  68.809  54.057  0.00  0.00    +0.000 C 
ATOM      6  C   UNL     1      62.040  68.560  53.277  0.00  0.00    +0.000 C 
ATOM      7  C   UNL     1      61.965  69.049  52.617  0.00  0.00    +0.000 C 
ATOM      8  C   UNL     1      62.025  67.734  53.273  0.00  0.00    +0.000 C 
ATOM      9  S   UNL     1      61.932  67.254  52.608  0.00  0.00    +0.000 S 
ATOM     10  C   UNL     1      61.844  67.596  51.862  0.00  0.00    +0.000 C 
ATOM     11  C   UNL     1      61.820  68.368  51.572  0.00  0.00    +0.000 C 
ATOM     12  N   UNL     1      61.718  68.077  50.807  0.00  0.00    +0.000 N 
ATOM     13  C   UNL     1      61.742  67.305  51.097  0.00  0.00    +0.000 C 
ATOM     14  C   UNL     1      61.630  68.419  50.061  0.00  0.00    +0.000 C 
ATOM     15  N   UNL     1      61.623  69.226  49.895  0.00  0.00    +0.000 NA
ATOM     16  C   UNL     1      61.522  69.318  49.081  0.00  0.00    +0.000 C 
ATOM     17  C   UNL     1      61.466  68.568  48.745  0.00  0.00    +0.000 C 
ATOM     18  S   UNL     1      61.533  68.011  49.350  0.00  0.00    +0.000 S 
ATOM     19  C   UNL     1      62.118  67.474  54.050  0.00  0.00    +0.000 C 
ATOM     20  N   UNL     1      62.191  68.138  54.535  0.00  0.00    +0.000 N 
ATOM     21  C   UNL     1      62.284  68.619  55.199  0.00  0.00    +0.000 C 
ATOM     22  O   UNL     1      62.384  68.484  56.006  0.00  0.00    +0.000 OA
ATOM     23  C   UNL     1      62.136  66.688  54.299  0.00  0.00    +0.000 C 
ATOM     24  O   UNL     1      62.234  66.511  55.099  0.00  0.00    +0.000 OA
ATOM     25  O   UNL     1      62.056  66.079  53.748  0.00  0.00    +0.000 OA
ATOM     26  C   UNL     1      62.074  65.292  53.997  0.00  0.00    +0.000 C 
ATOM     27  O   UNL     1      61.993  64.684  53.447  0.00  0.00    +0.000 OA
ATOM     28  C   UNL     1      62.011  63.897  53.696  0.00  0.00    +0.000 C 
ATOM     29  O   UNL     1      62.109  63.720  54.495  0.00  0.00    +0.000 OA
ATOM     30  C   UNL     1      61.931  63.288  53.145  0.00  0.00    +0.000 C 
ATOM     31  C   UNL     1      61.850  62.679  52.594  0.00  0.00    +0.000 C 
ATOM     32  C   UNL     1      61.998  62.732  53.751  0.00  0.00    +0.000 C 
ATOM     33  C   UNL     1      61.864  63.844  52.540  0.00  0.00    +0.000 C 
ENDROOT
TORSDOF 0
ENDMDL
MODEL 7
REMARK VINA RESULT:   -10.345     16.157     18.154
REMARK INTER + INTRA:         -10.345
REMARK INTER:                 -10.345
REMARK INTRA:                   0.000
REMARK UNBOUND:                 0.000
ROOT
REMARK  Name = tebipenem pivoxil
REMARK                            x       y       z     vdW  Elec       q    Type
REMARK                         _______ _______ _______ _____ _____    ______ ____
ATOM      1  C   UNL     1      63.254  68.026  56.958  0.00  0.00    +0.000 C 
ATOM      2  C   UNL     1      62.734  68.523  56.555  0.00  0.00    +0.000 C 
ATOM      3  O   UNL     1      62.338  69.122  56.961  0.00  0.00    +0.000 OA
ATOM      4  C   UNL     1      62.609  68.421  55.746  0.00  0.00    +0.000 C 
ATOM      5  C   UNL     1      62.147  68.797  55.176  0.00  0.00    +0.000 C 
ATOM      6  C   UNL     1      61.618  69.315  54.810  0.00  0.00    +0.000 C 
ATOM      7  C   UNL     1      61.204  69.925  55.179  0.00  0.00    +0.000 C 
ATOM      8  C   UNL     1      61.578  69.115  54.010  0.00  0.00    +0.000 C 
ATOM      9  S   UNL     1      61.116  69.491  53.439  0.00  0.00    +0.000 S 
ATOM     10  C   UNL     1      60.637  70.129  53.651  0.00  0.00    +0.000 C 
ATOM     11  C   UNL     1      60.481  70.534  54.353  0.00  0.00    +0.000 C 
ATOM     12  N   UNL     1      59.960  71.031  53.950  0.00  0.00    +0.000 N 
ATOM     13  C   UNL     1      60.117  70.626  53.248  0.00  0.00    +0.000 C 
ATOM     14  C   UNL     1      59.482  71.669  54.162  0.00  0.00    +0.000 C 
ATOM     15  N   UNL     1      59.409  71.991  54.917  0.00  0.00    +0.000 NA
ATOM     16  C   UNL     1      58.874  72.617  54.877  0.00  0.00    +0.000 C 
ATOM     17  C   UNL     1      58.617  72.683  54.096  0.00  0.00    +0.000 C 
ATOM     18  S   UNL     1      58.992  72.097  53.654  0.00  0.00    +0.000 S 
ATOM     19  C   UNL     1      62.081  68.474  53.882  0.00  0.00    +0.000 C 
ATOM     20  N   UNL     1      62.432  68.277  54.602  0.00  0.00    +0.000 N 
ATOM     21  C   UNL     1      62.895  67.901  55.173  0.00  0.00    +0.000 C 
ATOM     22  O   UNL     1      63.423  67.268  55.171  0.00  0.00    +0.000 OA
ATOM     23  C   UNL     1      62.209  68.095  53.160  0.00  0.00    +0.000 C 
ATOM     24  O   UNL     1      62.731  67.458  53.115  0.00  0.00    +0.000 OA
ATOM     25  O   UNL     1      61.816  68.355  52.483  0.00  0.00    +0.000 OA
ATOM     26  C   UNL     1      61.945  67.977  51.761  0.00  0.00    +0.000 C 
ATOM     27  O   UNL     1      61.552  68.237  51.083  0.00  0.00    +0.000 OA
ATOM     28  C   UNL     1      61.681  67.858  50.361  0.00  0.00    +0.000 C 
ATOM     29  O   UNL     1      62.203  67.221  50.317  0.00  0.00    +0.000 OA
ATOM     30  C   UNL     1      61.288  68.117  49.683  0.00  0.00    +0.000 C 
ATOM     31  C   UNL     1      60.895  68.377  49.006  0.00  0.00    +0.000 C 
ATOM     32  C   UNL     1      61.664  67.531  49.242  0.00  0.00    +0.000 C 
ATOM     33  C   UNL     1      60.913  68.704  50.126  0.00  0.00    +0.000 C 
ENDROOT
TORSDOF 0
ENDMDL
