MODEL 1
REMARK VINA RESULT:    -5.319      0.000      0.000
REMARK INTER + INTRA:          -5.319
REMARK INTER:                  -5.319
REMARK INTRA:                   0.000
REMARK UNBOUND:                 0.000
ROOT
REMARK  Name = teflurane
REMARK                            x       y       z     vdW  Elec       q    Type
REMARK                         _______ _______ _______ _____ _____    ______ ____
ATOM      1  F   UNL     1      66.376  78.087  60.718  0.00  0.00    +0.000 F 
ATOM      2  C   UNL     1      66.259  77.689  60.005  0.00  0.00    +0.000 C 
ATOM      3 BR   UNL     1      66.405  78.074  59.289  0.00  0.00    +0.000 Br
ATOM      4  C   UNL     1      65.997  76.906  60.007  0.00  0.00    +0.000 C 
ATOM      5  F   UNL     1      65.735  76.124  60.010  0.00  0.00    +0.000 F 
ATOM      6  F   UNL     1      66.014  76.899  59.183  0.00  0.00    +0.000 F 
ATOM      7  F   UNL     1      65.981  76.914  60.832  0.00  0.00    +0.000 F 
ENDROOT
TORSDOF 0
ENDMDL
MODEL 2
REMARK VINA RESULT:    -4.898     16.318     16.677
REMARK INTER + INTRA:          -4.898
REMARK INTER:                  -4.898
REMARK INTRA:                   0.000
REMARK UNBOUND:                 0.000
ROOT
REMARK  Name = teflurane
REMARK                            x       y       z     vdW  Elec       q    Type
REMARK                         _______ _______ _______ _____ _____    ______ ____
ATOM      1  F   UNL     1      60.983  61.396  64.542  0.00  0.00    +0.000 F 
ATOM      2  C   UNL     1      61.738  61.727  64.578  0.00  0.00    +0.000 C 
ATOM      3 BR   UNL     1      61.987  62.110  65.266  0.00  0.00    +0.000 Br
ATOM      4  C   UNL     1      62.243  61.675  63.929  0.00  0.00    +0.000 C 
ATOM      5  F   UNL     1      62.749  61.622  63.279  0.00  0.00    +0.000 F 
ATOM      6  F   UNL     1      62.823  62.087  64.347  0.00  0.00    +0.000 F 
ATOM      7  F   UNL     1      61.664  61.262  63.511  0.00  0.00    +0.000 F 
ENDROOT
TORSDOF 0
ENDMDL
MODEL 3
REMARK VINA RESULT:    -4.765      1.362      1.961
REMARK INTER + INTRA:          -4.765
REMARK INTER:                  -4.765
REMARK INTRA:                   0.000
REMARK UNBOUND:                 0.000
ROOT
REMARK  Name = teflurane
REMARK                            x       y       z     vdW  Elec       q    Type
REMARK                         _______ _______ _______ _____ _____    ______ ____
ATOM      1  F   UNL     1      65.380  78.536  59.253  0.00  0.00    +0.000 F 
ATOM      2  C   UNL     1      65.996  78.158  59.652  0.00  0.00    +0.000 C 
ATOM      3 BR   UNL     1      66.145  77.357  59.516  0.00  0.00    +0.000 Br
ATOM      4  C   UNL     1      66.463  78.580  60.185  0.00  0.00    +0.000 C 
ATOM      5  F   UNL     1      66.929  79.002  60.719  0.00  0.00    +0.000 F 
ATOM      6  F   UNL     1      66.904  77.900  60.337  0.00  0.00    +0.000 F 
ATOM      7  F   UNL     1      66.021  79.260  60.034  0.00  0.00    +0.000 F 
ENDROOT
TORSDOF 0
ENDMDL
MODEL 4
REMARK VINA RESULT:    -4.396     11.136     11.670
REMARK INTER + INTRA:          -4.396
REMARK INTER:                  -4.396
REMARK INTRA:                   0.000
REMARK UNBOUND:                 0.000
ROOT
REMARK  Name = teflurane
REMARK                            x       y       z     vdW  Elec       q    Type
REMARK                         _______ _______ _______ _____ _____    ______ ____
ATOM      1  F   UNL     1      71.156  77.724  48.933  0.00  0.00    +0.000 F 
ATOM      2  C   UNL     1      70.866  78.488  49.048  0.00  0.00    +0.000 C 
ATOM      3 BR   UNL     1      71.202  79.122  48.640  0.00  0.00    +0.000 Br
ATOM      4  C   UNL     1      70.241  78.618  49.570  0.00  0.00    +0.000 C 
ATOM      5  F   UNL     1      69.615  78.748  50.092  0.00  0.00    +0.000 F 
ATOM      6  F   UNL     1      70.267  79.425  49.401  0.00  0.00    +0.000 F 
ATOM      7  F   UNL     1      70.214  77.811  49.740  0.00  0.00    +0.000 F 
ENDROOT
TORSDOF 0
ENDMDL
MODEL 5
REMARK VINA RESULT:    -4.370     13.946     14.329
REMARK INTER + INTRA:          -4.370
REMARK INTER:                  -4.370
REMARK INTRA:                   0.000
REMARK UNBOUND:                 0.000
ROOT
REMARK  Name = teflurane
REMARK                            x       y       z     vdW  Elec       q    Type
REMARK                         _______ _______ _______ _____ _____    ______ ____
ATOM      1  F   UNL     1      67.034  67.253  71.137  0.00  0.00    +0.000 F 
ATOM      2  C   UNL     1      66.272  67.296  70.826  0.00  0.00    +0.000 C 
ATOM      3 BR   UNL     1      65.632  67.005  71.259  0.00  0.00    +0.000 Br
ATOM      4  C   UNL     1      66.148  67.630  70.081  0.00  0.00    +0.000 C 
ATOM      5  F   UNL     1      66.024  67.963  69.337  0.00  0.00    +0.000 F 
ATOM      6  F   UNL     1      65.339  67.486  70.151  0.00  0.00    +0.000 F 
ATOM      7  F   UNL     1      66.957  67.773  70.011  0.00  0.00    +0.000 F 
ENDROOT
TORSDOF 0
ENDMDL
MODEL 6
REMARK VINA RESULT:    -4.205     14.435     14.751
REMARK INTER + INTRA:          -4.205
REMARK INTER:                  -4.205
REMARK INTRA:                   0.000
REMARK UNBOUND:                 0.000
ROOT
REMARK  Name = teflurane
REMARK                            x       y       z     vdW  Elec       q    Type
REMARK                         _______ _______ _______ _____ _____    ______ ____
ATOM      1  F   UNL     1      76.692  67.030  55.600  0.00  0.00    +0.000 F 
ATOM      2  C   UNL     1      76.667  67.338  56.365  0.00  0.00    +0.000 C 
ATOM      3 BR   UNL     1      77.256  67.858  56.619  0.00  0.00    +0.000 Br
ATOM      4  C   UNL     1      76.055  67.127  56.876  0.00  0.00    +0.000 C 
ATOM      5  F   UNL     1      75.443  66.915  57.387  0.00  0.00    +0.000 F 
ATOM      6  F   UNL     1      76.381  67.605  57.464  0.00  0.00    +0.000 F 
ATOM      7  F   UNL     1      75.729  66.648  56.288  0.00  0.00    +0.000 F 
ENDROOT
TORSDOF 0
ENDMDL
MODEL 7
REMARK VINA RESULT:    -4.130     13.943     14.174
REMARK INTER + INTRA:          -4.130
REMARK INTER:                  -4.130
REMARK INTRA:                   0.000
REMARK UNBOUND:                 0.000
ROOT
REMARK  Name = teflurane
REMARK                            x       y       z     vdW  Elec       q    Type
REMARK                         _______ _______ _______ _____ _____    ______ ____
ATOM      1  F   UNL     1      75.510  67.487  58.155  0.00  0.00    +0.000 F 
ATOM      2  C   UNL     1      75.673  67.189  57.403  0.00  0.00    +0.000 C 
ATOM      3 BR   UNL     1      76.376  67.396  57.021  0.00  0.00    +0.000 Br
ATOM      4  C   UNL     1      75.136  66.685  57.033  0.00  0.00    +0.000 C 
ATOM      5  F   UNL     1      74.598  66.180  56.663  0.00  0.00    +0.000 F 
ATOM      6  F   UNL     1      75.636  66.632  56.379  0.00  0.00    +0.000 F 
ATOM      7  F   UNL     1      74.636  66.737  57.687  0.00  0.00    +0.000 F 
ENDROOT
TORSDOF 0
ENDMDL
MODEL 8
REMARK VINA RESULT:    -3.741      9.425     10.055
REMARK INTER + INTRA:          -3.741
REMARK INTER:                  -3.741
REMARK INTRA:                   0.000
REMARK UNBOUND:                 0.000
ROOT
REMARK  Name = teflurane
REMARK                            x       y       z     vdW  Elec       q    Type
REMARK                         _______ _______ _______ _____ _____    ______ ____
ATOM      1  F   UNL     1      62.817  67.305  56.735  0.00  0.00    +0.000 F 
ATOM      2  C   UNL     1      62.756  68.079  56.458  0.00  0.00    +0.000 C 
ATOM      3 BR   UNL     1      62.674  68.221  55.649  0.00  0.00    +0.000 Br
ATOM      4  C   UNL     1      62.775  68.711  56.988  0.00  0.00    +0.000 C 
ATOM      5  F   UNL     1      62.795  69.342  57.518  0.00  0.00    +0.000 F 
ATOM      6  F   UNL     1      62.692  69.240  56.361  0.00  0.00    +0.000 F 
ATOM      7  F   UNL     1      62.858  68.181  57.616  0.00  0.00    +0.000 F 
ENDROOT
TORSDOF 0
ENDMDL
MODEL 9
REMARK VINA RESULT:    -3.469     14.622     15.019
REMARK INTER + INTRA:          -3.469
REMARK INTER:                  -3.469
REMARK INTRA:                   0.000
REMARK UNBOUND:                 0.000
ROOT
REMARK  Name = teflurane
REMARK                            x       y       z     vdW  Elec       q    Type
REMARK                         _______ _______ _______ _____ _____    ______ ____
ATOM      1  F   UNL     1      65.447  67.637  69.995  0.00  0.00    +0.000 F 
ATOM      2  C   UNL     1      65.772  67.295  70.671  0.00  0.00    +0.000 C 
ATOM      3 BR   UNL     1      66.588  67.322  70.794  0.00  0.00    +0.000 Br
ATOM      4  C   UNL     1      65.283  66.927  71.224  0.00  0.00    +0.000 C 
ATOM      5  F   UNL     1      64.793  66.559  71.777  0.00  0.00    +0.000 F 
ATOM      6  F   UNL     1      65.941  66.745  71.686  0.00  0.00    +0.000 F 
ATOM      7  F   UNL     1      64.624  67.109  70.762  0.00  0.00    +0.000 F 
ENDROOT
TORSDOF 0
ENDMDL
