MODEL 1
REMARK VINA RESULT:   -16.140      0.000      0.000
REMARK INTER + INTRA:         -16.140
REMARK INTER:                 -16.140
REMARK INTRA:                   0.000
REMARK UNBOUND:                 0.000
ROOT
REMARK  Name = temoporfin
REMARK                            x       y       z     vdW  Elec       q    Type
REMARK                         _______ _______ _______ _____ _____    ______ ____
ATOM      1  O   UNL     1      61.416  63.261  48.905  0.00  0.00    +0.000 OA
ATOM      2  C   UNL     1      61.426  64.085  48.865  0.00  0.00    +0.000 A 
ATOM      3  C   UNL     1      61.342  64.464  48.138  0.00  0.00    +0.000 A 
ATOM      4  C   UNL     1      61.353  65.288  48.098  0.00  0.00    +0.000 A 
ATOM      5  C   UNL     1      61.447  65.732  48.786  0.00  0.00    +0.000 A 
ATOM      6  C   UNL     1      61.532  65.354  49.514  0.00  0.00    +0.000 A 
ATOM      7  C   UNL     1      61.521  64.529  49.554  0.00  0.00    +0.000 A 
ATOM      8  C   UNL     1      61.626  65.799  50.202  0.00  0.00    +0.000 C 
ATOM      9  C   UNL     1      61.635  66.635  50.145  0.00  0.00    +0.000 C 
ATOM     10  C   UNL     1      61.548  67.050  49.391  0.00  0.00    +0.000 C 
ATOM     11  C   UNL     1      61.583  67.820  49.550  0.00  0.00    +0.000 C 
ATOM     12  C   UNL     1      61.690  67.916  50.389  0.00  0.00    +0.000 C 
ATOM     13  N   UNL     1      61.716  67.149  50.713  0.00  0.00    +0.000 NA
ATOM     14  C   UNL     1      61.750  68.618  50.766  0.00  0.00    +0.000 C 
ATOM     15  C   UNL     1      61.857  68.714  51.604  0.00  0.00    +0.000 C 
ATOM     16  N   UNL     1      61.915  68.132  52.156  0.00  0.00    +0.000 NA
ATOM     17  C   UNL     1      62.015  68.416  52.908  0.00  0.00    +0.000 C 
ATOM     18  C   UNL     1      62.017  69.221  52.802  0.00  0.00    +0.000 C 
ATOM     19  C   UNL     1      61.919  69.392  51.997  0.00  0.00    +0.000 C 
ATOM     20  C   UNL     1      62.096  68.010  53.622  0.00  0.00    +0.000 C 
ATOM     21  C   UNL     1      62.089  67.213  53.687  0.00  0.00    +0.000 C 
ATOM     22  N   UNL     1      62.003  66.644  53.086  0.00  0.00    +0.000 NA
ATOM     23  C   UNL     1      62.030  65.942  53.402  0.00  0.00    +0.000 C 
ATOM     24  C   UNL     1      62.138  66.014  54.257  0.00  0.00    +0.000 C 
ATOM     25  C   UNL     1      62.173  66.783  54.416  0.00  0.00    +0.000 C 
ATOM     26  C   UNL     1      61.967  65.199  53.017  0.00  0.00    +0.000 C 
ATOM     27  C   UNL     1      61.867  65.135  52.227  0.00  0.00    +0.000 C 
ATOM     28  C   UNL     1      61.797  64.385  51.778  0.00  0.00    +0.000 C 
ATOM     29  C   UNL     1      61.704  64.548  51.013  0.00  0.00    +0.000 C 
ATOM     30  C   UNL     1      61.706  65.417  50.900  0.00  0.00    +0.000 C 
ATOM     31  N   UNL     1      61.804  65.726  51.635  0.00  0.00    +0.000 NA
ATOM     32  C   UNL     1      62.011  64.511  53.470  0.00  0.00    +0.000 A 
ATOM     33  C   UNL     1      62.114  64.561  54.287  0.00  0.00    +0.000 A 
ATOM     34  C   UNL     1      62.158  63.873  54.740  0.00  0.00    +0.000 A 
ATOM     35  O   UNL     1      62.261  63.923  55.557  0.00  0.00    +0.000 OA
ATOM     36  C   UNL     1      62.099  63.136  54.376  0.00  0.00    +0.000 A 
ATOM     37  C   UNL     1      61.995  63.085  53.559  0.00  0.00    +0.000 A 
ATOM     38  C   UNL     1      61.952  63.774  53.106  0.00  0.00    +0.000 A 
ATOM     39  C   UNL     1      62.191  68.455  54.310  0.00  0.00    +0.000 A 
ATOM     40  C   UNL     1      62.202  69.278  54.271  0.00  0.00    +0.000 A 
ATOM     41  C   UNL     1      62.297  69.722  54.960  0.00  0.00    +0.000 A 
ATOM     42  O   UNL     1      62.307  70.546  54.921  0.00  0.00    +0.000 OA
ATOM     43  C   UNL     1      62.381  69.343  55.688  0.00  0.00    +0.000 A 
ATOM     44  C   UNL     1      62.370  68.518  55.726  0.00  0.00    +0.000 A 
ATOM     45  C   UNL     1      62.275  68.074  55.037  0.00  0.00    +0.000 A 
ATOM     46  C   UNL     1      61.706  69.302  50.306  0.00  0.00    +0.000 A 
ATOM     47  C   UNL     1      61.602  69.244  49.489  0.00  0.00    +0.000 A 
ATOM     48  C   UNL     1      61.558  69.929  49.031  0.00  0.00    +0.000 A 
ATOM     49  O   UNL     1      61.454  69.870  48.214  0.00  0.00    +0.000 OA
ATOM     50  C   UNL     1      61.616  70.669  49.387  0.00  0.00    +0.000 A 
ATOM     51  C   UNL     1      61.720  70.727  50.204  0.00  0.00    +0.000 A 
ATOM     52  C   UNL     1      61.764  70.043  50.663  0.00  0.00    +0.000 A 
ENDROOT
TORSDOF 0
ENDMDL
MODEL 2
REMARK VINA RESULT:   -16.097      0.082      4.560
REMARK INTER + INTRA:         -16.097
REMARK INTER:                 -16.097
REMARK INTRA:                   0.000
REMARK UNBOUND:                 0.000
ROOT
REMARK  Name = temoporfin
REMARK                            x       y       z     vdW  Elec       q    Type
REMARK                         _______ _______ _______ _____ _____    ______ ____
ATOM      1  O   UNL     1      62.330  63.916  55.516  0.00  0.00    +0.000 OA
ATOM      2  C   UNL     1      62.220  63.869  54.700  0.00  0.00    +0.000 A 
ATOM      3  C   UNL     1      62.164  63.133  54.332  0.00  0.00    +0.000 A 
ATOM      4  C   UNL     1      62.054  63.085  53.516  0.00  0.00    +0.000 A 
ATOM      5  C   UNL     1      62.001  63.775  53.067  0.00  0.00    +0.000 A 
ATOM      6  C   UNL     1      62.056  64.513  53.434  0.00  0.00    +0.000 A 
ATOM      7  C   UNL     1      62.166  64.559  54.250  0.00  0.00    +0.000 A 
ATOM      8  C   UNL     1      62.002  65.202  52.984  0.00  0.00    +0.000 C 
ATOM      9  C   UNL     1      61.891  65.137  52.156  0.00  0.00    +0.000 C 
ATOM     10  C   UNL     1      61.830  64.374  51.753  0.00  0.00    +0.000 C 
ATOM     11  C   UNL     1      61.729  64.528  50.989  0.00  0.00    +0.000 C 
ATOM     12  C   UNL     1      61.723  65.372  50.884  0.00  0.00    +0.000 C 
ATOM     13  N   UNL     1      61.827  65.705  51.640  0.00  0.00    +0.000 NA
ATOM     14  C   UNL     1      61.633  65.746  50.183  0.00  0.00    +0.000 C 
ATOM     15  C   UNL     1      61.626  66.590  50.078  0.00  0.00    +0.000 C 
ATOM     16  N   UNL     1      61.708  67.151  50.648  0.00  0.00    +0.000 NA
ATOM     17  C   UNL     1      61.676  67.906  50.358  0.00  0.00    +0.000 C 
ATOM     18  C   UNL     1      61.568  67.793  49.561  0.00  0.00    +0.000 C 
ATOM     19  C   UNL     1      61.539  66.981  49.401  0.00  0.00    +0.000 C 
ATOM     20  C   UNL     1      61.735  68.629  50.752  0.00  0.00    +0.000 C 
ATOM     21  C   UNL     1      61.841  68.702  51.541  0.00  0.00    +0.000 C 
ATOM     22  N   UNL     1      61.912  68.101  52.112  0.00  0.00    +0.000 NA
ATOM     23  C   UNL     1      62.008  68.426  52.805  0.00  0.00    +0.000 C 
ATOM     24  C   UNL     1      62.005  69.286  52.723  0.00  0.00    +0.000 C 
ATOM     25  C   UNL     1      61.904  69.440  51.959  0.00  0.00    +0.000 C 
ATOM     26  C   UNL     1      62.103  68.044  53.545  0.00  0.00    +0.000 C 
ATOM     27  C   UNL     1      62.106  67.248  53.618  0.00  0.00    +0.000 C 
ATOM     28  C   UNL     1      62.202  66.801  54.367  0.00  0.00    +0.000 C 
ATOM     29  C   UNL     1      62.175  66.030  54.214  0.00  0.00    +0.000 C 
ATOM     30  C   UNL     1      62.059  65.908  53.354  0.00  0.00    +0.000 C 
ATOM     31  N   UNL     1      62.023  66.647  53.039  0.00  0.00    +0.000 NA
ATOM     32  C   UNL     1      62.198  68.506  54.222  0.00  0.00    +0.000 A 
ATOM     33  C   UNL     1      62.198  69.329  54.162  0.00  0.00    +0.000 A 
ATOM     34  C   UNL     1      62.293  69.791  54.839  0.00  0.00    +0.000 A 
ATOM     35  O   UNL     1      62.292  70.614  54.780  0.00  0.00    +0.000 OA
ATOM     36  C   UNL     1      62.388  69.430  55.575  0.00  0.00    +0.000 A 
ATOM     37  C   UNL     1      62.388  68.607  55.634  0.00  0.00    +0.000 A 
ATOM     38  C   UNL     1      62.293  68.145  54.957  0.00  0.00    +0.000 A 
ATOM     39  C   UNL     1      61.681  69.319  50.302  0.00  0.00    +0.000 A 
ATOM     40  C   UNL     1      61.571  69.273  49.487  0.00  0.00    +0.000 A 
ATOM     41  C   UNL     1      61.518  69.964  49.038  0.00  0.00    +0.000 A 
ATOM     42  O   UNL     1      61.408  69.917  48.222  0.00  0.00    +0.000 OA
ATOM     43  C   UNL     1      61.574  70.700  49.406  0.00  0.00    +0.000 A 
ATOM     44  C   UNL     1      61.683  70.746  50.223  0.00  0.00    +0.000 A 
ATOM     45  C   UNL     1      61.737  70.055  50.671  0.00  0.00    +0.000 A 
ATOM     46  C   UNL     1      61.538  65.277  49.510  0.00  0.00    +0.000 A 
ATOM     47  C   UNL     1      61.540  64.455  49.578  0.00  0.00    +0.000 A 
ATOM     48  C   UNL     1      61.445  63.987  48.905  0.00  0.00    +0.000 A 
ATOM     49  O   UNL     1      61.447  63.164  48.972  0.00  0.00    +0.000 OA
ATOM     50  C   UNL     1      61.350  64.340  48.166  0.00  0.00    +0.000 A 
ATOM     51  C   UNL     1      61.348  65.162  48.099  0.00  0.00    +0.000 A 
ATOM     52  C   UNL     1      61.443  65.631  48.771  0.00  0.00    +0.000 A 
ENDROOT
TORSDOF 0
ENDMDL
MODEL 3
REMARK VINA RESULT:   -16.091      0.077      4.528
REMARK INTER + INTRA:         -16.091
REMARK INTER:                 -16.091
REMARK INTRA:                   0.000
REMARK UNBOUND:                 0.000
ROOT
REMARK  Name = temoporfin
REMARK                            x       y       z     vdW  Elec       q    Type
REMARK                         _______ _______ _______ _____ _____    ______ ____
ATOM      1  O   UNL     1      61.375  69.897  48.252  0.00  0.00    +0.000 OA
ATOM      2  C   UNL     1      61.487  69.938  49.068  0.00  0.00    +0.000 A 
ATOM      3  C   UNL     1      61.544  70.672  49.440  0.00  0.00    +0.000 A 
ATOM      4  C   UNL     1      61.656  70.713  50.256  0.00  0.00    +0.000 A 
ATOM      5  C   UNL     1      61.711  70.019  50.700  0.00  0.00    +0.000 A 
ATOM      6  C   UNL     1      61.653  69.285  50.328  0.00  0.00    +0.000 A 
ATOM      7  C   UNL     1      61.541  69.245  49.511  0.00  0.00    +0.000 A 
ATOM      8  C   UNL     1      61.708  68.592  50.773  0.00  0.00    +0.000 C 
ATOM      9  C   UNL     1      61.822  68.651  51.601  0.00  0.00    +0.000 C 
ATOM     10  C   UNL     1      61.884  69.411  52.009  0.00  0.00    +0.000 C 
ATOM     11  C   UNL     1      61.987  69.251  52.772  0.00  0.00    +0.000 C 
ATOM     12  C   UNL     1      61.994  68.406  52.870  0.00  0.00    +0.000 C 
ATOM     13  N   UNL     1      61.887  68.079  52.112  0.00  0.00    +0.000 NA
ATOM     14  C   UNL     1      62.086  68.026  53.569  0.00  0.00    +0.000 C 
ATOM     15  C   UNL     1      62.092  67.182  53.667  0.00  0.00    +0.000 C 
ATOM     16  N   UNL     1      62.008  66.625  53.093  0.00  0.00    +0.000 NA
ATOM     17  C   UNL     1      62.041  65.868  53.377  0.00  0.00    +0.000 C 
ATOM     18  C   UNL     1      62.151  65.975  54.175  0.00  0.00    +0.000 C 
ATOM     19  C   UNL     1      62.180  66.786  54.340  0.00  0.00    +0.000 C 
ATOM     20  C   UNL     1      61.980  65.148  52.978  0.00  0.00    +0.000 C 
ATOM     21  C   UNL     1      61.871  65.082  52.189  0.00  0.00    +0.000 C 
ATOM     22  N   UNL     1      61.799  65.687  51.622  0.00  0.00    +0.000 NA
ATOM     23  C   UNL     1      61.701  65.367  50.927  0.00  0.00    +0.000 C 
ATOM     24  C   UNL     1      61.704  64.506  51.003  0.00  0.00    +0.000 C 
ATOM     25  C   UNL     1      61.807  64.346  51.766  0.00  0.00    +0.000 C 
ATOM     26  C   UNL     1      61.604  65.755  50.190  0.00  0.00    +0.000 C 
ATOM     27  C   UNL     1      61.602  66.551  50.123  0.00  0.00    +0.000 C 
ATOM     28  C   UNL     1      61.504  67.003  49.378  0.00  0.00    +0.000 C 
ATOM     29  C   UNL     1      61.532  67.774  49.536  0.00  0.00    +0.000 C 
ATOM     30  C   UNL     1      61.651  67.889  50.397  0.00  0.00    +0.000 C 
ATOM     31  N   UNL     1      61.687  67.148  50.706  0.00  0.00    +0.000 NA
ATOM     32  C   UNL     1      61.507  65.298  49.510  0.00  0.00    +0.000 A 
ATOM     33  C   UNL     1      61.507  64.474  49.563  0.00  0.00    +0.000 A 
ATOM     34  C   UNL     1      61.410  64.017  48.883  0.00  0.00    +0.000 A 
ATOM     35  O   UNL     1      61.410  63.194  48.937  0.00  0.00    +0.000 OA
ATOM     36  C   UNL     1      61.313  64.384  48.151  0.00  0.00    +0.000 A 
ATOM     37  C   UNL     1      61.313  65.207  48.098  0.00  0.00    +0.000 A 
ATOM     38  C   UNL     1      61.410  65.664  48.778  0.00  0.00    +0.000 A 
ATOM     39  C   UNL     1      62.035  64.455  53.422  0.00  0.00    +0.000 A 
ATOM     40  C   UNL     1      62.147  64.494  54.238  0.00  0.00    +0.000 A 
ATOM     41  C   UNL     1      62.201  63.800  54.681  0.00  0.00    +0.000 A 
ATOM     42  O   UNL     1      62.313  63.841  55.497  0.00  0.00    +0.000 OA
ATOM     43  C   UNL     1      62.144  63.067  54.308  0.00  0.00    +0.000 A 
ATOM     44  C   UNL     1      62.032  63.028  53.491  0.00  0.00    +0.000 A 
ATOM     45  C   UNL     1      61.977  63.721  53.048  0.00  0.00    +0.000 A 
ATOM     46  C   UNL     1      62.182  68.490  54.244  0.00  0.00    +0.000 A 
ATOM     47  C   UNL     1      62.181  69.313  54.183  0.00  0.00    +0.000 A 
ATOM     48  C   UNL     1      62.277  69.776  54.859  0.00  0.00    +0.000 A 
ATOM     49  O   UNL     1      62.276  70.599  54.798  0.00  0.00    +0.000 OA
ATOM     50  C   UNL     1      62.375  69.418  55.595  0.00  0.00    +0.000 A 
ATOM     51  C   UNL     1      62.376  68.595  55.656  0.00  0.00    +0.000 A 
ATOM     52  C   UNL     1      62.280  68.131  54.980  0.00  0.00    +0.000 A 
ENDROOT
TORSDOF 0
ENDMDL
MODEL 4
REMARK VINA RESULT:   -15.940      0.089      6.414
REMARK INTER + INTRA:         -15.940
REMARK INTER:                 -15.940
REMARK INTRA:                   0.000
REMARK UNBOUND:                 0.000
ROOT
REMARK  Name = temoporfin
REMARK                            x       y       z     vdW  Elec       q    Type
REMARK                         _______ _______ _______ _____ _____    ______ ____
ATOM      1  O   UNL     1      62.278  70.624  54.807  0.00  0.00    +0.000 OA
ATOM      2  C   UNL     1      62.271  69.801  54.863  0.00  0.00    +0.000 A 
ATOM      3  C   UNL     1      62.364  69.436  55.596  0.00  0.00    +0.000 A 
ATOM      4  C   UNL     1      62.356  68.613  55.652  0.00  0.00    +0.000 A 
ATOM      5  C   UNL     1      62.255  68.155  54.973  0.00  0.00    +0.000 A 
ATOM      6  C   UNL     1      62.163  68.520  54.239  0.00  0.00    +0.000 A 
ATOM      7  C   UNL     1      62.170  69.343  54.184  0.00  0.00    +0.000 A 
ATOM      8  C   UNL     1      62.062  68.061  53.561  0.00  0.00    +0.000 C 
ATOM      9  C   UNL     1      62.057  67.226  53.634  0.00  0.00    +0.000 C 
ATOM     10  C   UNL     1      62.152  66.826  54.395  0.00  0.00    +0.000 C 
ATOM     11  C   UNL     1      62.119  66.054  54.250  0.00  0.00    +0.000 C 
ATOM     12  C   UNL     1      62.003  65.941  53.415  0.00  0.00    +0.000 C 
ATOM     13  N   UNL     1      61.971  66.702  53.077  0.00  0.00    +0.000 NA
ATOM     14  C   UNL     1      61.941  65.231  53.052  0.00  0.00    +0.000 C 
ATOM     15  C   UNL     1      61.826  65.119  52.217  0.00  0.00    +0.000 C 
ATOM     16  N   UNL     1      61.760  65.690  51.655  0.00  0.00    +0.000 NA
ATOM     17  C   UNL     1      61.653  65.392  50.910  0.00  0.00    +0.000 C 
ATOM     18  C   UNL     1      61.655  64.589  51.031  0.00  0.00    +0.000 C 
ATOM     19  C   UNL     1      61.761  64.434  51.837  0.00  0.00    +0.000 C 
ATOM     20  C   UNL     1      61.563  65.784  50.189  0.00  0.00    +0.000 C 
ATOM     21  C   UNL     1      61.566  66.579  50.109  0.00  0.00    +0.000 C 
ATOM     22  N   UNL     1      61.657  67.160  50.698  0.00  0.00    +0.000 NA
ATOM     23  C   UNL     1      61.625  67.856  50.368  0.00  0.00    +0.000 C 
ATOM     24  C   UNL     1      61.508  67.768  49.516  0.00  0.00    +0.000 C 
ATOM     25  C   UNL     1      61.474  66.996  49.372  0.00  0.00    +0.000 C 
ATOM     26  C   UNL     1      61.689  68.606  50.738  0.00  0.00    +0.000 C 
ATOM     27  C   UNL     1      61.798  68.685  51.527  0.00  0.00    +0.000 C 
ATOM     28  C   UNL     1      61.870  69.444  51.961  0.00  0.00    +0.000 C 
ATOM     29  C   UNL     1      61.972  69.296  52.727  0.00  0.00    +0.000 C 
ATOM     30  C   UNL     1      61.973  68.429  52.857  0.00  0.00    +0.000 C 
ATOM     31  N   UNL     1      61.869  68.106  52.128  0.00  0.00    +0.000 NA
ATOM     32  C   UNL     1      61.638  69.285  50.273  0.00  0.00    +0.000 A 
ATOM     33  C   UNL     1      61.527  69.219  49.458  0.00  0.00    +0.000 A 
ATOM     34  C   UNL     1      61.476  69.899  48.993  0.00  0.00    +0.000 A 
ATOM     35  O   UNL     1      61.364  69.833  48.178  0.00  0.00    +0.000 OA
ATOM     36  C   UNL     1      61.537  70.643  49.342  0.00  0.00    +0.000 A 
ATOM     37  C   UNL     1      61.649  70.709  50.157  0.00  0.00    +0.000 A 
ATOM     38  C   UNL     1      61.700  70.030  50.623  0.00  0.00    +0.000 A 
ATOM     39  C   UNL     1      61.462  65.326  49.510  0.00  0.00    +0.000 A 
ATOM     40  C   UNL     1      61.454  64.503  49.565  0.00  0.00    +0.000 A 
ATOM     41  C   UNL     1      61.354  64.046  48.886  0.00  0.00    +0.000 A 
ATOM     42  O   UNL     1      61.346  63.223  48.941  0.00  0.00    +0.000 OA
ATOM     43  C   UNL     1      61.261  64.411  48.152  0.00  0.00    +0.000 A 
ATOM     44  C   UNL     1      61.269  65.235  48.098  0.00  0.00    +0.000 A 
ATOM     45  C   UNL     1      61.369  65.692  48.777  0.00  0.00    +0.000 A 
ATOM     46  C   UNL     1      61.993  64.556  53.524  0.00  0.00    +0.000 A 
ATOM     47  C   UNL     1      62.104  64.630  54.338  0.00  0.00    +0.000 A 
ATOM     48  C   UNL     1      62.156  63.955  54.810  0.00  0.00    +0.000 A 
ATOM     49  O   UNL     1      62.268  64.029  55.624  0.00  0.00    +0.000 OA
ATOM     50  C   UNL     1      62.096  63.207  54.468  0.00  0.00    +0.000 A 
ATOM     51  C   UNL     1      61.984  63.133  53.654  0.00  0.00    +0.000 A 
ATOM     52  C   UNL     1      61.932  63.808  53.182  0.00  0.00    +0.000 A 
ENDROOT
TORSDOF 0
ENDMDL
MODEL 5
REMARK VINA RESULT:   -15.216      0.729      4.543
REMARK INTER + INTRA:         -15.216
REMARK INTER:                 -15.216
REMARK INTRA:                   0.000
REMARK UNBOUND:                 0.000
ROOT
REMARK  Name = temoporfin
REMARK                            x       y       z     vdW  Elec       q    Type
REMARK                         _______ _______ _______ _____ _____    ______ ____
ATOM      1  O   UNL     1      62.380  69.338  56.292  0.00  0.00    +0.000 OA
ATOM      2  C   UNL     1      62.298  69.523  55.492  0.00  0.00    +0.000 A 
ATOM      3  C   UNL     1      62.293  70.312  55.249  0.00  0.00    +0.000 A 
ATOM      4  C   UNL     1      62.211  70.497  54.449  0.00  0.00    +0.000 A 
ATOM      5  C   UNL     1      62.134  69.893  53.892  0.00  0.00    +0.000 A 
ATOM      6  C   UNL     1      62.139  69.104  54.135  0.00  0.00    +0.000 A 
ATOM      7  C   UNL     1      62.221  68.920  54.935  0.00  0.00    +0.000 A 
ATOM      8  C   UNL     1      62.062  68.501  53.578  0.00  0.00    +0.000 C 
ATOM      9  C   UNL     1      61.979  68.705  52.769  0.00  0.00    +0.000 C 
ATOM     10  C   UNL     1      61.972  69.525  52.495  0.00  0.00    +0.000 C 
ATOM     11  C   UNL     1      61.886  69.503  51.714  0.00  0.00    +0.000 C 
ATOM     12  C   UNL     1      61.838  68.689  51.472  0.00  0.00    +0.000 C 
ATOM     13  N   UNL     1      61.901  68.233  52.166  0.00  0.00    +0.000 NA
ATOM     14  C   UNL     1      61.749  68.439  50.718  0.00  0.00    +0.000 C 
ATOM     15  C   UNL     1      61.700  67.625  50.476  0.00  0.00    +0.000 C 
ATOM     16  N   UNL     1      61.734  66.976  50.949  0.00  0.00    +0.000 NA
ATOM     17  C   UNL     1      61.671  66.280  50.538  0.00  0.00    +0.000 C 
ATOM     18  C   UNL     1      61.594  66.527  49.769  0.00  0.00    +0.000 C 
ATOM     19  C   UNL     1      61.613  67.355  49.743  0.00  0.00    +0.000 C 
ATOM     20  C   UNL     1      61.679  65.501  50.810  0.00  0.00    +0.000 C 
ATOM     21  C   UNL     1      61.758  65.296  51.579  0.00  0.00    +0.000 C 
ATOM     22  N   UNL     1      61.843  65.791  52.242  0.00  0.00    +0.000 NA
ATOM     23  C   UNL     1      61.900  65.354  52.874  0.00  0.00    +0.000 C 
ATOM     24  C   UNL     1      61.854  64.519  52.653  0.00  0.00    +0.000 C 
ATOM     25  C   UNL     1      61.768  64.497  51.872  0.00  0.00    +0.000 C 
ATOM     26  C   UNL     1      61.994  65.604  53.669  0.00  0.00    +0.000 C 
ATOM     27  C   UNL     1      62.037  66.377  53.871  0.00  0.00    +0.000 C 
ATOM     28  C   UNL     1      62.134  66.690  54.685  0.00  0.00    +0.000 C 
ATOM     29  C   UNL     1      62.152  67.476  54.660  0.00  0.00    +0.000 C 
ATOM     30  C   UNL     1      62.069  67.742  53.829  0.00  0.00    +0.000 C 
ATOM     31  N   UNL     1      62.004  67.067  53.397  0.00  0.00    +0.000 NA
ATOM     32  C   UNL     1      62.043  65.034  54.263  0.00  0.00    +0.000 A 
ATOM     33  C   UNL     1      62.001  64.233  54.070  0.00  0.00    +0.000 A 
ATOM     34  C   UNL     1      62.050  63.662  54.664  0.00  0.00    +0.000 A 
ATOM     35  O   UNL     1      62.007  62.861  54.471  0.00  0.00    +0.000 OA
ATOM     36  C   UNL     1      62.142  63.894  55.450  0.00  0.00    +0.000 A 
ATOM     37  C   UNL     1      62.184  64.695  55.643  0.00  0.00    +0.000 A 
ATOM     38  C   UNL     1      62.135  65.265  55.049  0.00  0.00    +0.000 A 
ATOM     39  C   UNL     1      61.603  64.897  50.253  0.00  0.00    +0.000 A 
ATOM     40  C   UNL     1      61.520  65.081  49.454  0.00  0.00    +0.000 A 
ATOM     41  C   UNL     1      61.443  64.476  48.898  0.00  0.00    +0.000 A 
ATOM     42  O   UNL     1      61.361  64.661  48.098  0.00  0.00    +0.000 OA
ATOM     43  C   UNL     1      61.449  63.688  49.141  0.00  0.00    +0.000 A 
ATOM     44  C   UNL     1      61.531  63.505  49.942  0.00  0.00    +0.000 A 
ATOM     45  C   UNL     1      61.608  64.109  50.498  0.00  0.00    +0.000 A 
ATOM     46  C   UNL     1      61.700  69.015  50.129  0.00  0.00    +0.000 A 
ATOM     47  C   UNL     1      61.744  69.815  50.330  0.00  0.00    +0.000 A 
ATOM     48  C   UNL     1      61.695  70.390  49.741  0.00  0.00    +0.000 A 
ATOM     49  O   UNL     1      61.738  71.189  49.941  0.00  0.00    +0.000 OA
ATOM     50  C   UNL     1      61.603  70.168  48.952  0.00  0.00    +0.000 A 
ATOM     51  C   UNL     1      61.560  69.368  48.752  0.00  0.00    +0.000 A 
ATOM     52  C   UNL     1      61.608  68.792  49.340  0.00  0.00    +0.000 A 
ENDROOT
TORSDOF 0
ENDMDL
MODEL 6
REMARK VINA RESULT:   -15.174      0.739      4.588
REMARK INTER + INTRA:         -15.174
REMARK INTER:                 -15.174
REMARK INTRA:                   0.000
REMARK UNBOUND:                 0.000
ROOT
REMARK  Name = temoporfin
REMARK                            x       y       z     vdW  Elec       q    Type
REMARK                         _______ _______ _______ _____ _____    ______ ____
ATOM      1  O   UNL     1      61.985  63.037  54.536  0.00  0.00    +0.000 OA
ATOM      2  C   UNL     1      62.026  63.839  54.722  0.00  0.00    +0.000 A 
ATOM      3  C   UNL     1      62.117  64.077  55.506  0.00  0.00    +0.000 A 
ATOM      4  C   UNL     1      62.158  64.880  55.692  0.00  0.00    +0.000 A 
ATOM      5  C   UNL     1      62.109  65.445  55.093  0.00  0.00    +0.000 A 
ATOM      6  C   UNL     1      62.018  65.207  54.308  0.00  0.00    +0.000 A 
ATOM      7  C   UNL     1      61.977  64.404  54.123  0.00  0.00    +0.000 A 
ATOM      8  C   UNL     1      61.969  65.773  53.709  0.00  0.00    +0.000 C 
ATOM      9  C   UNL     1      62.013  66.584  53.915  0.00  0.00    +0.000 C 
ATOM     10  C   UNL     1      62.108  66.852  54.731  0.00  0.00    +0.000 C 
ATOM     11  C   UNL     1      62.126  67.638  54.711  0.00  0.00    +0.000 C 
ATOM     12  C   UNL     1      62.046  67.888  53.902  0.00  0.00    +0.000 C 
ATOM     13  N   UNL     1      61.979  67.194  53.446  0.00  0.00    +0.000 NA
ATOM     14  C   UNL     1      62.040  68.649  53.655  0.00  0.00    +0.000 C 
ATOM     15  C   UNL     1      61.960  68.899  52.846  0.00  0.00    +0.000 C 
ATOM     16  N   UNL     1      61.878  68.429  52.199  0.00  0.00    +0.000 NA
ATOM     17  C   UNL     1      61.815  68.847  51.509  0.00  0.00    +0.000 C 
ATOM     18  C   UNL     1      61.862  69.619  51.756  0.00  0.00    +0.000 C 
ATOM     19  C   UNL     1      61.951  69.638  52.579  0.00  0.00    +0.000 C 
ATOM     20  C   UNL     1      61.724  68.580  50.733  0.00  0.00    +0.000 C 
ATOM     21  C   UNL     1      61.681  67.809  50.527  0.00  0.00    +0.000 C 
ATOM     22  N   UNL     1      61.716  67.138  51.018  0.00  0.00    +0.000 NA
ATOM     23  C   UNL     1      61.652  66.506  50.581  0.00  0.00    +0.000 C 
ATOM     24  C   UNL     1      61.569  66.735  49.752  0.00  0.00    +0.000 C 
ATOM     25  C   UNL     1      61.588  67.521  49.731  0.00  0.00    +0.000 C 
ATOM     26  C   UNL     1      61.658  65.705  50.828  0.00  0.00    +0.000 C 
ATOM     27  C   UNL     1      61.734  65.495  51.596  0.00  0.00    +0.000 C 
ATOM     28  C   UNL     1      61.746  64.674  51.905  0.00  0.00    +0.000 C 
ATOM     29  C   UNL     1      61.830  64.693  52.687  0.00  0.00    +0.000 C 
ATOM     30  C   UNL     1      61.881  65.526  52.954  0.00  0.00    +0.000 C 
ATOM     31  N   UNL     1      61.821  65.967  52.284  0.00  0.00    +0.000 NA
ATOM     32  C   UNL     1      61.581  65.112  50.259  0.00  0.00    +0.000 A 
ATOM     33  C   UNL     1      61.500  65.313  49.463  0.00  0.00    +0.000 A 
ATOM     34  C   UNL     1      61.423  64.720  48.894  0.00  0.00    +0.000 A 
ATOM     35  O   UNL     1      61.343  64.921  48.098  0.00  0.00    +0.000 OA
ATOM     36  C   UNL     1      61.427  63.928  49.122  0.00  0.00    +0.000 A 
ATOM     37  C   UNL     1      61.507  63.727  49.918  0.00  0.00    +0.000 A 
ATOM     38  C   UNL     1      61.584  64.320  50.487  0.00  0.00    +0.000 A 
ATOM     39  C   UNL     1      61.675  69.145  50.134  0.00  0.00    +0.000 A 
ATOM     40  C   UNL     1      61.716  69.948  50.318  0.00  0.00    +0.000 A 
ATOM     41  C   UNL     1      61.667  70.512  49.718  0.00  0.00    +0.000 A 
ATOM     42  O   UNL     1      61.708  71.315  49.904  0.00  0.00    +0.000 OA
ATOM     43  C   UNL     1      61.576  70.274  48.934  0.00  0.00    +0.000 A 
ATOM     44  C   UNL     1      61.535  69.470  48.749  0.00  0.00    +0.000 A 
ATOM     45  C   UNL     1      61.584  68.906  49.349  0.00  0.00    +0.000 A 
ATOM     46  C   UNL     1      62.117  69.236  54.230  0.00  0.00    +0.000 A 
ATOM     47  C   UNL     1      62.197  69.028  55.024  0.00  0.00    +0.000 A 
ATOM     48  C   UNL     1      62.274  69.615  55.598  0.00  0.00    +0.000 A 
ATOM     49  O   UNL     1      62.354  69.407  56.393  0.00  0.00    +0.000 OA
ATOM     50  C   UNL     1      62.272  70.410  55.379  0.00  0.00    +0.000 A 
ATOM     51  C   UNL     1      62.192  70.618  54.584  0.00  0.00    +0.000 A 
ATOM     52  C   UNL     1      62.115  70.031  54.010  0.00  0.00    +0.000 A 
ENDROOT
TORSDOF 0
ENDMDL
MODEL 7
REMARK VINA RESULT:   -14.900      2.034      2.916
REMARK INTER + INTRA:         -14.900
REMARK INTER:                 -14.900
REMARK INTRA:                   0.000
REMARK UNBOUND:                 0.000
ROOT
REMARK  Name = temoporfin
REMARK                            x       y       z     vdW  Elec       q    Type
REMARK                         _______ _______ _______ _____ _____    ______ ____
ATOM      1  O   UNL     1      59.415  66.491  48.975  0.00  0.00    +0.000 OA
ATOM      2  C   UNL     1      59.343  67.164  49.447  0.00  0.00    +0.000 A 
ATOM      3  C   UNL     1      58.883  67.799  49.192  0.00  0.00    +0.000 A 
ATOM      4  C   UNL     1      58.811  68.472  49.664  0.00  0.00    +0.000 A 
ATOM      5  C   UNL     1      59.199  68.509  50.391  0.00  0.00    +0.000 A 
ATOM      6  C   UNL     1      59.660  67.874  50.646  0.00  0.00    +0.000 A 
ATOM      7  C   UNL     1      59.732  67.201  50.173  0.00  0.00    +0.000 A 
ATOM      8  C   UNL     1      60.048  67.912  51.373  0.00  0.00    +0.000 C 
ATOM      9  C   UNL     1      59.965  68.603  51.840  0.00  0.00    +0.000 C 
ATOM     10  C   UNL     1      59.487  69.278  51.590  0.00  0.00    +0.000 C 
ATOM     11  C   UNL     1      59.538  69.816  52.161  0.00  0.00    +0.000 C 
ATOM     12  C   UNL     1      60.038  69.507  52.777  0.00  0.00    +0.000 C 
ATOM     13  N   UNL     1      60.277  68.750  52.529  0.00  0.00    +0.000 NA
ATOM     14  C   UNL     1      60.224  69.893  53.453  0.00  0.00    +0.000 C 
ATOM     15  C   UNL     1      60.723  69.584  54.068  0.00  0.00    +0.000 C 
ATOM     16  N   UNL     1      61.089  68.868  54.083  0.00  0.00    +0.000 NA
ATOM     17  C   UNL     1      61.526  68.749  54.754  0.00  0.00    +0.000 C 
ATOM     18  C   UNL     1      61.415  69.437  55.171  0.00  0.00    +0.000 C 
ATOM     19  C   UNL     1      60.921  69.942  54.739  0.00  0.00    +0.000 C 
ATOM     20  C   UNL     1      61.980  68.098  54.983  0.00  0.00    +0.000 C 
ATOM     21  C   UNL     1      62.065  67.436  54.545  0.00  0.00    +0.000 C 
ATOM     22  N   UNL     1      61.736  67.259  53.801  0.00  0.00    +0.000 NA
ATOM     23  C   UNL     1      61.968  66.556  53.586  0.00  0.00    +0.000 C 
ATOM     24  C   UNL     1      62.479  66.221  54.198  0.00  0.00    +0.000 C 
ATOM     25  C   UNL     1      62.530  66.759  54.770  0.00  0.00    +0.000 C 
ATOM     26  C   UNL     1      61.779  66.143  52.881  0.00  0.00    +0.000 C 
ATOM     27  C   UNL     1      61.307  66.455  52.317  0.00  0.00    +0.000 C 
ATOM     28  C   UNL     1      61.080  66.065  51.565  0.00  0.00    +0.000 C 
ATOM     29  C   UNL     1      60.610  66.546  51.155  0.00  0.00    +0.000 C 
ATOM     30  C   UNL     1      60.491  67.288  51.605  0.00  0.00    +0.000 C 
ATOM     31  N   UNL     1      60.916  67.196  52.281  0.00  0.00    +0.000 NA
ATOM     32  C   UNL     1      62.092  65.388  52.766  0.00  0.00    +0.000 A 
ATOM     33  C   UNL     1      62.582  65.053  53.340  0.00  0.00    +0.000 A 
ATOM     34  C   UNL     1      62.895  64.298  53.225  0.00  0.00    +0.000 A 
ATOM     35  O   UNL     1      63.384  63.963  53.798  0.00  0.00    +0.000 OA
ATOM     36  C   UNL     1      62.718  63.880  52.536  0.00  0.00    +0.000 A 
ATOM     37  C   UNL     1      62.229  64.215  51.963  0.00  0.00    +0.000 A 
ATOM     38  C   UNL     1      61.916  64.970  52.078  0.00  0.00    +0.000 A 
ATOM     39  C   UNL     1      62.368  68.136  55.710  0.00  0.00    +0.000 A 
ATOM     40  C   UNL     1      62.297  68.808  56.183  0.00  0.00    +0.000 A 
ATOM     41  C   UNL     1      62.686  68.844  56.909  0.00  0.00    +0.000 A 
ATOM     42  O   UNL     1      62.614  69.517  57.382  0.00  0.00    +0.000 OA
ATOM     43  C   UNL     1      63.147  68.209  57.163  0.00  0.00    +0.000 A 
ATOM     44  C   UNL     1      63.218  67.536  56.690  0.00  0.00    +0.000 A 
ATOM     45  C   UNL     1      62.829  67.499  55.963  0.00  0.00    +0.000 A 
ATOM     46  C   UNL     1      59.907  70.647  53.561  0.00  0.00    +0.000 A 
ATOM     47  C   UNL     1      59.418  70.976  52.983  0.00  0.00    +0.000 A 
ATOM     48  C   UNL     1      59.102  71.730  53.092  0.00  0.00    +0.000 A 
ATOM     49  O   UNL     1      58.614  72.059  52.514  0.00  0.00    +0.000 OA
ATOM     50  C   UNL     1      59.274  72.155  53.777  0.00  0.00    +0.000 A 
ATOM     51  C   UNL     1      59.762  71.826  54.355  0.00  0.00    +0.000 A 
ATOM     52  C   UNL     1      60.079  71.072  54.247  0.00  0.00    +0.000 A 
ENDROOT
TORSDOF 0
ENDMDL
MODEL 8
REMARK VINA RESULT:   -14.690      1.732      4.614
REMARK INTER + INTRA:         -14.690
REMARK INTER:                 -14.690
REMARK INTRA:                   0.000
REMARK UNBOUND:                 0.000
ROOT
REMARK  Name = temoporfin
REMARK                            x       y       z     vdW  Elec       q    Type
REMARK                         _______ _______ _______ _____ _____    ______ ____
ATOM      1  O   UNL     1      58.922  65.826  48.376  0.00  0.00    +0.000 OA
ATOM      2  C   UNL     1      59.324  65.402  48.958  0.00  0.00    +0.000 A 
ATOM      3  C   UNL     1      59.442  64.591  48.871  0.00  0.00    +0.000 A 
ATOM      4  C   UNL     1      59.844  64.167  49.453  0.00  0.00    +0.000 A 
ATOM      5  C   UNL     1      60.129  64.555  50.123  0.00  0.00    +0.000 A 
ATOM      6  C   UNL     1      60.012  65.367  50.211  0.00  0.00    +0.000 A 
ATOM      7  C   UNL     1      59.609  65.791  49.628  0.00  0.00    +0.000 A 
ATOM      8  C   UNL     1      60.297  65.755  50.881  0.00  0.00    +0.000 C 
ATOM      9  C   UNL     1      60.704  65.310  51.463  0.00  0.00    +0.000 C 
ATOM     10  C   UNL     1      60.837  64.459  51.389  0.00  0.00    +0.000 C 
ATOM     11  C   UNL     1      61.231  64.234  52.031  0.00  0.00    +0.000 C 
ATOM     12  C   UNL     1      61.359  64.917  52.521  0.00  0.00    +0.000 C 
ATOM     13  N   UNL     1      61.011  65.561  52.123  0.00  0.00    +0.000 NA
ATOM     14  C   UNL     1      61.741  64.913  53.223  0.00  0.00    +0.000 C 
ATOM     15  C   UNL     1      61.868  65.597  53.713  0.00  0.00    +0.000 C 
ATOM     16  N   UNL     1      61.634  66.351  53.564  0.00  0.00    +0.000 NA
ATOM     17  C   UNL     1      61.846  66.871  54.148  0.00  0.00    +0.000 C 
ATOM     18  C   UNL     1      62.232  66.398  54.684  0.00  0.00    +0.000 C 
ATOM     19  C   UNL     1      62.240  65.618  54.405  0.00  0.00    +0.000 C 
ATOM     20  C   UNL     1      61.713  67.683  54.209  0.00  0.00    +0.000 C 
ATOM     21  C   UNL     1      61.327  68.116  53.660  0.00  0.00    +0.000 C 
ATOM     22  N   UNL     1      60.989  67.862  52.943  0.00  0.00    +0.000 NA
ATOM     23  C   UNL     1      60.672  68.469  52.588  0.00  0.00    +0.000 C 
ATOM     24  C   UNL     1      60.789  69.178  53.069  0.00  0.00    +0.000 C 
ATOM     25  C   UNL     1      61.184  68.954  53.711  0.00  0.00    +0.000 C 
ATOM     26  C   UNL     1      60.269  68.485  51.853  0.00  0.00    +0.000 C 
ATOM     27  C   UNL     1      60.163  67.828  51.410  0.00  0.00    +0.000 C 
ATOM     28  C   UNL     1      59.750  67.792  50.636  0.00  0.00    +0.000 C 
ATOM     29  C   UNL     1      59.757  67.051  50.373  0.00  0.00    +0.000 C 
ATOM     30  C   UNL     1      60.175  66.542  50.951  0.00  0.00    +0.000 C 
ATOM     31  N   UNL     1      60.398  67.035  51.545  0.00  0.00    +0.000 NA
ATOM     32  C   UNL     1      59.973  69.204  51.577  0.00  0.00    +0.000 A 
ATOM     33  C   UNL     1      60.076  69.891  52.022  0.00  0.00    +0.000 A 
ATOM     34  C   UNL     1      59.780  70.610  51.746  0.00  0.00    +0.000 A 
ATOM     35  O   UNL     1      59.882  71.296  52.192  0.00  0.00    +0.000 OA
ATOM     36  C   UNL     1      59.381  70.641  51.025  0.00  0.00    +0.000 A 
ATOM     37  C   UNL     1      59.279  69.955  50.579  0.00  0.00    +0.000 A 
ATOM     38  C   UNL     1      59.575  69.236  50.855  0.00  0.00    +0.000 A 
ATOM     39  C   UNL     1      61.998  68.071  54.879  0.00  0.00    +0.000 A 
ATOM     40  C   UNL     1      62.401  67.649  55.461  0.00  0.00    +0.000 A 
ATOM     41  C   UNL     1      62.685  68.038  56.131  0.00  0.00    +0.000 A 
ATOM     42  O   UNL     1      63.088  67.615  56.714  0.00  0.00    +0.000 OA
ATOM     43  C   UNL     1      62.567  68.850  56.218  0.00  0.00    +0.000 A 
ATOM     44  C   UNL     1      62.164  69.273  55.635  0.00  0.00    +0.000 A 
ATOM     45  C   UNL     1      61.880  68.883  54.965  0.00  0.00    +0.000 A 
ATOM     46  C   UNL     1      62.035  64.190  53.493  0.00  0.00    +0.000 A 
ATOM     47  C   UNL     1      61.928  63.508  53.041  0.00  0.00    +0.000 A 
ATOM     48  C   UNL     1      62.222  62.786  53.312  0.00  0.00    +0.000 A 
ATOM     49  O   UNL     1      62.116  62.103  52.860  0.00  0.00    +0.000 OA
ATOM     50  C   UNL     1      62.621  62.746  54.032  0.00  0.00    +0.000 A 
ATOM     51  C   UNL     1      62.728  63.428  54.483  0.00  0.00    +0.000 A 
ATOM     52  C   UNL     1      62.434  64.151  54.214  0.00  0.00    +0.000 A 
ENDROOT
TORSDOF 0
ENDMDL
MODEL 9
REMARK VINA RESULT:   -14.636      1.734      4.710
REMARK INTER + INTRA:         -14.636
REMARK INTER:                 -14.636
REMARK INTRA:                   0.000
REMARK UNBOUND:                 0.000
ROOT
REMARK  Name = temoporfin
REMARK                            x       y       z     vdW  Elec       q    Type
REMARK                         _______ _______ _______ _____ _____    ______ ____
ATOM      1  O   UNL     1      63.127  67.628  56.667  0.00  0.00    +0.000 OA
ATOM      2  C   UNL     1      62.719  68.050  56.088  0.00  0.00    +0.000 A 
ATOM      3  C   UNL     1      62.601  68.862  56.176  0.00  0.00    +0.000 A 
ATOM      4  C   UNL     1      62.192  69.285  55.597  0.00  0.00    +0.000 A 
ATOM      5  C   UNL     1      61.901  68.895  54.931  0.00  0.00    +0.000 A 
ATOM      6  C   UNL     1      62.019  68.083  54.843  0.00  0.00    +0.000 A 
ATOM      7  C   UNL     1      62.428  67.661  55.422  0.00  0.00    +0.000 A 
ATOM      8  C   UNL     1      61.727  67.695  54.176  0.00  0.00    +0.000 C 
ATOM      9  C   UNL     1      61.314  68.139  53.597  0.00  0.00    +0.000 C 
ATOM     10  C   UNL     1      61.181  68.990  53.672  0.00  0.00    +0.000 C 
ATOM     11  C   UNL     1      60.780  69.213  53.034  0.00  0.00    +0.000 C 
ATOM     12  C   UNL     1      60.648  68.529  52.546  0.00  0.00    +0.000 C 
ATOM     13  N   UNL     1      61.000  67.886  52.941  0.00  0.00    +0.000 NA
ATOM     14  C   UNL     1      60.259  68.532  51.847  0.00  0.00    +0.000 C 
ATOM     15  C   UNL     1      60.128  67.848  51.359  0.00  0.00    +0.000 C 
ATOM     16  N   UNL     1      60.364  67.094  51.507  0.00  0.00    +0.000 NA
ATOM     17  C   UNL     1      60.147  66.573  50.925  0.00  0.00    +0.000 C 
ATOM     18  C   UNL     1      59.755  67.045  50.394  0.00  0.00    +0.000 C 
ATOM     19  C   UNL     1      59.749  67.825  50.671  0.00  0.00    +0.000 C 
ATOM     20  C   UNL     1      60.280  65.761  50.864  0.00  0.00    +0.000 C 
ATOM     21  C   UNL     1      60.672  65.329  51.410  0.00  0.00    +0.000 C 
ATOM     22  N   UNL     1      61.017  65.584  52.124  0.00  0.00    +0.000 NA
ATOM     23  C   UNL     1      61.338  64.978  52.476  0.00  0.00    +0.000 C 
ATOM     24  C   UNL     1      61.217  64.268  51.997  0.00  0.00    +0.000 C 
ATOM     25  C   UNL     1      60.816  64.492  51.359  0.00  0.00    +0.000 C 
ATOM     26  C   UNL     1      61.748  64.963  53.207  0.00  0.00    +0.000 C 
ATOM     27  C   UNL     1      61.858  65.621  53.648  0.00  0.00    +0.000 C 
ATOM     28  C   UNL     1      62.279  65.658  54.417  0.00  0.00    +0.000 C 
ATOM     29  C   UNL     1      62.273  66.400  54.680  0.00  0.00    +0.000 C 
ATOM     30  C   UNL     1      61.849  66.908  54.106  0.00  0.00    +0.000 C 
ATOM     31  N   UNL     1      61.621  66.413  53.514  0.00  0.00    +0.000 NA
ATOM     32  C   UNL     1      62.048  64.245  53.481  0.00  0.00    +0.000 A 
ATOM     33  C   UNL     1      61.941  63.557  53.037  0.00  0.00    +0.000 A 
ATOM     34  C   UNL     1      62.241  62.839  53.311  0.00  0.00    +0.000 A 
ATOM     35  O   UNL     1      62.135  62.152  52.867  0.00  0.00    +0.000 OA
ATOM     36  C   UNL     1      62.647  62.809  54.029  0.00  0.00    +0.000 A 
ATOM     37  C   UNL     1      62.753  63.496  54.472  0.00  0.00    +0.000 A 
ATOM     38  C   UNL     1      62.453  64.214  54.199  0.00  0.00    +0.000 A 
ATOM     39  C   UNL     1      59.989  65.372  50.198  0.00  0.00    +0.000 A 
ATOM     40  C   UNL     1      59.580  65.793  49.619  0.00  0.00    +0.000 A 
ATOM     41  C   UNL     1      59.289  65.403  48.953  0.00  0.00    +0.000 A 
ATOM     42  O   UNL     1      58.880  65.825  48.374  0.00  0.00    +0.000 OA
ATOM     43  C   UNL     1      59.407  64.591  48.865  0.00  0.00    +0.000 A 
ATOM     44  C   UNL     1      59.816  64.169  49.445  0.00  0.00    +0.000 A 
ATOM     45  C   UNL     1      60.107  64.559  50.111  0.00  0.00    +0.000 A 
ATOM     46  C   UNL     1      59.962  69.254  51.580  0.00  0.00    +0.000 A 
ATOM     47  C   UNL     1      60.072  69.937  52.029  0.00  0.00    +0.000 A 
ATOM     48  C   UNL     1      59.775  70.659  51.761  0.00  0.00    +0.000 A 
ATOM     49  O   UNL     1      59.885  71.342  52.211  0.00  0.00    +0.000 OA
ATOM     50  C   UNL     1      59.369  70.697  51.045  0.00  0.00    +0.000 A 
ATOM     51  C   UNL     1      59.258  70.014  50.596  0.00  0.00    +0.000 A 
ATOM     52  C   UNL     1      59.555  69.292  50.863  0.00  0.00    +0.000 A 
ENDROOT
TORSDOF 0
ENDMDL
