MODEL 1
REMARK VINA RESULT:   -16.883      0.000      0.000
REMARK INTER + INTRA:         -16.883
REMARK INTER:                 -16.883
REMARK INTRA:                   0.000
REMARK UNBOUND:                 0.000
ROOT
REMARK  Name = temsirolimus
REMARK                            x       y       z     vdW  Elec       q    Type
REMARK                         _______ _______ _______ _____ _____    ______ ____
ATOM      1  C   UNL     1      61.367  69.588  55.180  0.00  0.00    +0.000 C 
ATOM      2  O   UNL     1      61.153  69.190  54.490  0.00  0.00    +0.000 OA
ATOM      3  C   UNL     1      61.423  68.422  54.357  0.00  0.00    +0.000 C 
ATOM      4  C   UNL     1      61.210  68.024  53.666  0.00  0.00    +0.000 C 
ATOM      5  C   UNL     1      61.479  67.256  53.533  0.00  0.00    +0.000 C 
ATOM      6  C   UNL     1      61.266  66.858  52.843  0.00  0.00    +0.000 C 
ATOM      7  C   UNL     1      61.535  66.090  52.709  0.00  0.00    +0.000 C 
ATOM      8  C   UNL     1      62.018  65.719  53.266  0.00  0.00    +0.000 C 
ATOM      9  C   UNL     1      61.321  65.692  52.018  0.00  0.00    +0.000 C 
ATOM     10  C   UNL     1      61.052  66.460  52.151  0.00  0.00    +0.000 C 
ATOM     11  C   UNL     1      60.570  66.831  51.595  0.00  0.00    +0.000 C 
ATOM     12  O   UNL     1      60.356  66.433  50.904  0.00  0.00    +0.000 OA
ATOM     13  C   UNL     1      60.300  67.599  51.728  0.00  0.00    +0.000 C 
ATOM     14  C   UNL     1      60.513  67.997  52.418  0.00  0.00    +0.000 C 
ATOM     15  C   UNL     1      59.818  67.969  51.170  0.00  0.00    +0.000 C 
ATOM     16  C   UNL     1      59.548  68.738  51.304  0.00  0.00    +0.000 C 
ATOM     17  C   UNL     1      59.761  69.136  51.994  0.00  0.00    +0.000 C 
ATOM     18  C   UNL     1      59.066  69.108  50.747  0.00  0.00    +0.000 C 
ATOM     19  O   UNL     1      58.805  69.877  50.896  0.00  0.00    +0.000 OA
ATOM     20  C   UNL     1      58.812  68.705  49.980  0.00  0.00    +0.000 C 
ATOM     21  O   UNL     1      58.491  69.464  50.015  0.00  0.00    +0.000 OA
ATOM     22  C   UNL     1      58.017  69.740  49.399  0.00  0.00    +0.000 C 
ATOM     23  C   UNL     1      58.363  68.849  49.303  0.00  0.00    +0.000 C 
ATOM     24  O   UNL     1      57.953  69.545  49.132  0.00  0.00    +0.000 OA
ATOM     25  C   UNL     1      58.395  68.176  48.827  0.00  0.00    +0.000 C 
ATOM     26  C   UNL     1      58.024  68.080  48.098  0.00  0.00    +0.000 C 
ATOM     27  C   UNL     1      58.864  67.615  49.211  0.00  0.00    +0.000 C 
ATOM     28  C   UNL     1      59.178  66.776  49.100  0.00  0.00    +0.000 C 
ATOM     29  C   UNL     1      58.974  66.364  48.414  0.00  0.00    +0.000 C 
ATOM     30  C   UNL     1      59.660  66.405  49.656  0.00  0.00    +0.000 C 
ATOM     31  C   UNL     1      59.929  65.638  49.523  0.00  0.00    +0.000 C 
ATOM     32  C   UNL     1      60.412  65.268  50.080  0.00  0.00    +0.000 C 
ATOM     33  C   UNL     1      60.681  64.499  49.947  0.00  0.00    +0.000 C 
ATOM     34  C   UNL     1      61.164  64.128  50.504  0.00  0.00    +0.000 C 
ATOM     35  C   UNL     1      61.433  63.360  50.370  0.00  0.00    +0.000 C 
ATOM     36  C   UNL     1      61.220  62.962  49.680  0.00  0.00    +0.000 C 
ATOM     37  C   UNL     1      61.916  62.989  50.928  0.00  0.00    +0.000 C 
ATOM     38  C   UNL     1      62.185  62.221  50.794  0.00  0.00    +0.000 C 
ATOM     39  C   UNL     1      62.668  61.850  51.351  0.00  0.00    +0.000 C 
ATOM     40  C   UNL     1      62.937  61.082  51.217  0.00  0.00    +0.000 C 
ATOM     41  C   UNL     1      63.420  60.711  51.775  0.00  0.00    +0.000 C 
ATOM     42  C   UNL     1      63.633  61.109  52.465  0.00  0.00    +0.000 C 
ATOM     43  C   UNL     1      64.115  60.739  53.022  0.00  0.00    +0.000 C 
ATOM     44  C   UNL     1      63.364  61.877  52.599  0.00  0.00    +0.000 C 
ATOM     45  O   UNL     1      63.847  61.507  53.156  0.00  0.00    +0.000 OA
ATOM     46  O   UNL     1      62.881  62.248  52.041  0.00  0.00    +0.000 OA
ATOM     47  C   UNL     1      63.577  62.275  53.289  0.00  0.00    +0.000 C 
ATOM     48  O   UNL     1      64.060  61.905  53.847  0.00  0.00    +0.000 OA
ATOM     49  C   UNL     1      63.241  63.361  53.557  0.00  0.00    +0.000 C 
ATOM     50  O   UNL     1      63.736  62.979  54.126  0.00  0.00    +0.000 OA
ATOM     51  N   UNL     1      62.825  63.414  52.866  0.00  0.00    +0.000 N 
ATOM     52  C   UNL     1      63.308  63.044  53.423  0.00  0.00    +0.000 C 
ATOM     53  C   UNL     1      63.521  63.441  54.113  0.00  0.00    +0.000 C 
ATOM     54  C   UNL     1      63.252  64.210  54.247  0.00  0.00    +0.000 C 
ATOM     55  C   UNL     1      62.769  64.580  53.690  0.00  0.00    +0.000 C 
ATOM     56  C   UNL     1      62.556  64.183  52.999  0.00  0.00    +0.000 C 
ATOM     57  C   UNL     1      62.073  64.553  52.442  0.00  0.00    +0.000 C 
ATOM     58  O   UNL     1      61.860  64.155  51.752  0.00  0.00    +0.000 OA
ATOM     59  O   UNL     1      61.804  65.321  52.576  0.00  0.00    +0.000 OA
ATOM     60  O   UNL     1      61.703  62.591  50.237  0.00  0.00    +0.000 OA
ATOM     61  C   UNL     1      61.972  61.823  50.104  0.00  0.00    +0.000 C 
ATOM     62  C   UNL     1      61.962  66.885  54.090  0.00  0.00    +0.000 C 
ATOM     63  C   UNL     1      62.175  67.283  54.781  0.00  0.00    +0.000 C 
ATOM     64  C   UNL     1      61.905  68.051  54.914  0.00  0.00    +0.000 C 
ATOM     65  O   UNL     1      62.119  68.449  55.605  0.00  0.00    +0.000 OA
ATOM     66  C   UNL     1      62.601  68.078  56.161  0.00  0.00    +0.000 C 
ATOM     67  O   UNL     1      62.871  67.311  56.028  0.00  0.00    +0.000 OA
ATOM     68  C   UNL     1      62.815  68.477  56.852  0.00  0.00    +0.000 C 
ATOM     69  C   UNL     1      62.381  69.134  56.607  0.00  0.00    +0.000 C 
ATOM     70  C   UNL     1      63.028  68.875  57.543  0.00  0.00    +0.000 C 
ATOM     71  O   UNL     1      62.759  69.642  57.677  0.00  0.00    +0.000 OA
ATOM     72  C   UNL     1      63.249  67.819  57.097  0.00  0.00    +0.000 C 
ATOM     73  O   UNL     1      63.651  67.835  57.817  0.00  0.00    +0.000 OA
ENDROOT
TORSDOF 0
ENDMDL
MODEL 2
REMARK VINA RESULT:   -16.023      2.067      6.123
REMARK INTER + INTRA:         -16.023
REMARK INTER:                 -16.023
REMARK INTRA:                   0.000
REMARK UNBOUND:                 0.000
ROOT
REMARK  Name = temsirolimus
REMARK                            x       y       z     vdW  Elec       q    Type
REMARK                         _______ _______ _______ _____ _____    ______ ____
ATOM      1  C   UNL     1      58.514  70.016  48.477  0.00  0.00    +0.000 C 
ATOM      2  O   UNL     1      58.756  69.318  48.845  0.00  0.00    +0.000 OA
ATOM      3  C   UNL     1      59.122  69.347  49.583  0.00  0.00    +0.000 C 
ATOM      4  C   UNL     1      59.364  68.649  49.952  0.00  0.00    +0.000 C 
ATOM      5  C   UNL     1      59.730  68.678  50.690  0.00  0.00    +0.000 C 
ATOM      6  C   UNL     1      59.972  67.981  51.058  0.00  0.00    +0.000 C 
ATOM      7  C   UNL     1      60.339  68.010  51.797  0.00  0.00    +0.000 C 
ATOM      8  C   UNL     1      60.463  68.736  52.168  0.00  0.00    +0.000 C 
ATOM      9  C   UNL     1      60.581  67.312  52.164  0.00  0.00    +0.000 C 
ATOM     10  C   UNL     1      60.215  67.283  51.426  0.00  0.00    +0.000 C 
ATOM     11  C   UNL     1      60.091  66.557  51.055  0.00  0.00    +0.000 C 
ATOM     12  O   UNL     1      60.333  65.859  51.423  0.00  0.00    +0.000 OA
ATOM     13  C   UNL     1      59.725  66.528  50.317  0.00  0.00    +0.000 C 
ATOM     14  C   UNL     1      59.482  67.225  49.948  0.00  0.00    +0.000 C 
ATOM     15  C   UNL     1      59.601  65.801  49.946  0.00  0.00    +0.000 C 
ATOM     16  C   UNL     1      59.234  65.773  49.207  0.00  0.00    +0.000 C 
ATOM     17  C   UNL     1      58.992  66.470  48.839  0.00  0.00    +0.000 C 
ATOM     18  C   UNL     1      59.110  65.046  48.836  0.00  0.00    +0.000 C 
ATOM     19  O   UNL     1      58.743  65.035  48.098  0.00  0.00    +0.000 OA
ATOM     20  C   UNL     1      59.362  64.263  49.208  0.00  0.00    +0.000 C 
ATOM     21  O   UNL     1      59.008  64.123  48.476  0.00  0.00    +0.000 OA
ATOM     22  C   UNL     1      58.933  63.351  48.194  0.00  0.00    +0.000 C 
ATOM     23  C   UNL     1      59.353  63.452  49.053  0.00  0.00    +0.000 C 
ATOM     24  O   UNL     1      59.045  63.092  48.377  0.00  0.00    +0.000 OA
ATOM     25  C   UNL     1      59.704  63.066  49.691  0.00  0.00    +0.000 C 
ATOM     26  C   UNL     1      59.810  62.252  49.767  0.00  0.00    +0.000 C 
ATOM     27  C   UNL     1      59.930  63.638  50.242  0.00  0.00    +0.000 C 
ATOM     28  C   UNL     1      60.327  63.709  51.049  0.00  0.00    +0.000 C 
ATOM     29  C   UNL     1      60.575  63.021  51.431  0.00  0.00    +0.000 C 
ATOM     30  C   UNL     1      60.451  64.435  51.420  0.00  0.00    +0.000 C 
ATOM     31  C   UNL     1      60.817  64.464  52.158  0.00  0.00    +0.000 C 
ATOM     32  C   UNL     1      60.941  65.191  52.529  0.00  0.00    +0.000 C 
ATOM     33  C   UNL     1      61.307  65.219  53.268  0.00  0.00    +0.000 C 
ATOM     34  C   UNL     1      61.431  65.946  53.639  0.00  0.00    +0.000 C 
ATOM     35  C   UNL     1      61.798  65.974  54.378  0.00  0.00    +0.000 C 
ATOM     36  C   UNL     1      62.040  65.277  54.746  0.00  0.00    +0.000 C 
ATOM     37  C   UNL     1      61.922  66.701  54.748  0.00  0.00    +0.000 C 
ATOM     38  C   UNL     1      62.288  66.730  55.488  0.00  0.00    +0.000 C 
ATOM     39  C   UNL     1      62.412  67.456  55.858  0.00  0.00    +0.000 C 
ATOM     40  C   UNL     1      62.778  67.485  56.597  0.00  0.00    +0.000 C 
ATOM     41  C   UNL     1      62.902  68.211  56.968  0.00  0.00    +0.000 C 
ATOM     42  C   UNL     1      62.660  68.908  56.600  0.00  0.00    +0.000 C 
ATOM     43  C   UNL     1      62.784  69.635  56.971  0.00  0.00    +0.000 C 
ATOM     44  C   UNL     1      62.294  68.880  55.862  0.00  0.00    +0.000 C 
ATOM     45  O   UNL     1      62.418  69.607  56.232  0.00  0.00    +0.000 OA
ATOM     46  O   UNL     1      62.170  68.153  55.490  0.00  0.00    +0.000 OA
ATOM     47  C   UNL     1      62.052  69.578  55.494  0.00  0.00    +0.000 C 
ATOM     48  O   UNL     1      62.175  70.304  55.864  0.00  0.00    +0.000 OA
ATOM     49  C   UNL     1      61.528  69.627  54.452  0.00  0.00    +0.000 C 
ATOM     50  O   UNL     1      61.656  70.370  54.833  0.00  0.00    +0.000 OA
ATOM     51  N   UNL     1      61.561  68.822  54.384  0.00  0.00    +0.000 N 
ATOM     52  C   UNL     1      61.685  69.549  54.754  0.00  0.00    +0.000 C 
ATOM     53  C   UNL     1      61.443  70.247  54.387  0.00  0.00    +0.000 C 
ATOM     54  C   UNL     1      61.077  70.218  53.648  0.00  0.00    +0.000 C 
ATOM     55  C   UNL     1      60.953  69.491  53.277  0.00  0.00    +0.000 C 
ATOM     56  C   UNL     1      61.195  68.794  53.645  0.00  0.00    +0.000 C 
ATOM     57  C   UNL     1      61.071  68.067  53.274  0.00  0.00    +0.000 C 
ATOM     58  O   UNL     1      61.313  67.370  53.642  0.00  0.00    +0.000 OA
ATOM     59  O   UNL     1      60.705  68.039  52.536  0.00  0.00    +0.000 OA
ATOM     60  O   UNL     1      62.164  66.004  55.117  0.00  0.00    +0.000 OA
ATOM     61  C   UNL     1      62.530  66.032  55.856  0.00  0.00    +0.000 C 
ATOM     62  C   UNL     1      59.854  69.405  51.061  0.00  0.00    +0.000 C 
ATOM     63  C   UNL     1      59.612  70.103  50.693  0.00  0.00    +0.000 C 
ATOM     64  C   UNL     1      59.246  70.073  49.955  0.00  0.00    +0.000 C 
ATOM     65  O   UNL     1      59.004  70.772  49.587  0.00  0.00    +0.000 OA
ATOM     66  C   UNL     1      59.128  71.497  49.958  0.00  0.00    +0.000 C 
ATOM     67  O   UNL     1      59.494  71.526  50.696  0.00  0.00    +0.000 OA
ATOM     68  C   UNL     1      58.886  72.195  49.590  0.00  0.00    +0.000 C 
ATOM     69  C   UNL     1      58.603  71.759  48.949  0.00  0.00    +0.000 C 
ATOM     70  C   UNL     1      58.643  72.893  49.221  0.00  0.00    +0.000 C 
ATOM     71  O   UNL     1      58.277  72.865  48.483  0.00  0.00    +0.000 OA
ATOM     72  C   UNL     1      59.169  72.631  50.230  0.00  0.00    +0.000 C 
ATOM     73  O   UNL     1      59.100  73.453  50.232  0.00  0.00    +0.000 OA
ENDROOT
TORSDOF 0
ENDMDL
MODEL 3
REMARK VINA RESULT:   -14.925      1.787      5.961
REMARK INTER + INTRA:         -14.925
REMARK INTER:                 -14.925
REMARK INTRA:                   0.000
REMARK UNBOUND:                 0.000
ROOT
REMARK  Name = temsirolimus
REMARK                            x       y       z     vdW  Elec       q    Type
REMARK                         _______ _______ _______ _____ _____    ______ ____
ATOM      1  C   UNL     1      59.379  72.032  51.535  0.00  0.00    +0.000 C 
ATOM      2  O   UNL     1      59.704  71.378  51.918  0.00  0.00    +0.000 OA
ATOM      3  C   UNL     1      59.648  70.630  51.574  0.00  0.00    +0.000 C 
ATOM      4  C   UNL     1      59.973  69.975  51.957  0.00  0.00    +0.000 C 
ATOM      5  C   UNL     1      59.918  69.227  51.613  0.00  0.00    +0.000 C 
ATOM      6  C   UNL     1      60.242  68.573  51.995  0.00  0.00    +0.000 C 
ATOM      7  C   UNL     1      60.187  67.824  51.651  0.00  0.00    +0.000 C 
ATOM      8  C   UNL     1      59.807  67.731  50.925  0.00  0.00    +0.000 C 
ATOM      9  C   UNL     1      60.512  67.170  52.034  0.00  0.00    +0.000 C 
ATOM     10  C   UNL     1      60.567  67.917  52.378  0.00  0.00    +0.000 C 
ATOM     11  C   UNL     1      60.947  68.011  53.104  0.00  0.00    +0.000 C 
ATOM     12  O   UNL     1      61.272  67.356  53.487  0.00  0.00    +0.000 OA
ATOM     13  C   UNL     1      61.002  68.758  53.448  0.00  0.00    +0.000 C 
ATOM     14  C   UNL     1      60.678  69.413  53.066  0.00  0.00    +0.000 C 
ATOM     15  C   UNL     1      61.382  68.851  54.174  0.00  0.00    +0.000 C 
ATOM     16  C   UNL     1      61.437  69.600  54.518  0.00  0.00    +0.000 C 
ATOM     17  C   UNL     1      61.113  70.254  54.136  0.00  0.00    +0.000 C 
ATOM     18  C   UNL     1      61.818  69.692  55.245  0.00  0.00    +0.000 C 
ATOM     19  O   UNL     1      61.864  70.447  55.574  0.00  0.00    +0.000 OA
ATOM     20  C   UNL     1      62.184  69.000  55.692  0.00  0.00    +0.000 C 
ATOM     21  O   UNL     1      62.294  69.697  56.119  0.00  0.00    +0.000 OA
ATOM     22  C   UNL     1      62.691  69.680  56.842  0.00  0.00    +0.000 C 
ATOM     23  C   UNL     1      62.594  68.838  56.390  0.00  0.00    +0.000 C 
ATOM     24  O   UNL     1      62.810  69.390  56.964  0.00  0.00    +0.000 OA
ATOM     25  C   UNL     1      62.750  68.028  56.413  0.00  0.00    +0.000 C 
ATOM     26  C   UNL     1      63.148  67.627  57.013  0.00  0.00    +0.000 C 
ATOM     27  C   UNL     1      62.436  67.689  55.728  0.00  0.00    +0.000 C 
ATOM     28  C   UNL     1      62.356  66.887  55.322  0.00  0.00    +0.000 C 
ATOM     29  C   UNL     1      62.676  66.222  55.691  0.00  0.00    +0.000 C 
ATOM     30  C   UNL     1      61.977  66.794  54.596  0.00  0.00    +0.000 C 
ATOM     31  C   UNL     1      61.921  66.047  54.252  0.00  0.00    +0.000 C 
ATOM     32  C   UNL     1      61.541  65.954  53.526  0.00  0.00    +0.000 C 
ATOM     33  C   UNL     1      61.486  65.205  53.182  0.00  0.00    +0.000 C 
ATOM     34  C   UNL     1      61.106  65.112  52.456  0.00  0.00    +0.000 C 
ATOM     35  C   UNL     1      61.051  64.364  52.112  0.00  0.00    +0.000 C 
ATOM     36  C   UNL     1      61.376  63.709  52.494  0.00  0.00    +0.000 C 
ATOM     37  C   UNL     1      60.671  64.271  51.386  0.00  0.00    +0.000 C 
ATOM     38  C   UNL     1      60.616  63.523  51.042  0.00  0.00    +0.000 C 
ATOM     39  C   UNL     1      60.236  63.430  50.315  0.00  0.00    +0.000 C 
ATOM     40  C   UNL     1      60.181  62.681  49.972  0.00  0.00    +0.000 C 
ATOM     41  C   UNL     1      59.801  62.589  49.245  0.00  0.00    +0.000 C 
ATOM     42  C   UNL     1      59.476  63.243  48.863  0.00  0.00    +0.000 C 
ATOM     43  C   UNL     1      59.096  63.151  48.137  0.00  0.00    +0.000 C 
ATOM     44  C   UNL     1      59.531  63.991  49.206  0.00  0.00    +0.000 C 
ATOM     45  O   UNL     1      59.151  63.898  48.480  0.00  0.00    +0.000 OA
ATOM     46  O   UNL     1      59.912  64.085  49.933  0.00  0.00    +0.000 OA
ATOM     47  C   UNL     1      59.207  64.646  48.824  0.00  0.00    +0.000 C 
ATOM     48  O   UNL     1      58.827  64.553  48.098  0.00  0.00    +0.000 OA
ATOM     49  C   UNL     1      59.240  65.737  49.238  0.00  0.00    +0.000 C 
ATOM     50  O   UNL     1      58.851  65.639  48.495  0.00  0.00    +0.000 OA
ATOM     51  N   UNL     1      59.642  65.487  49.894  0.00  0.00    +0.000 N 
ATOM     52  C   UNL     1      59.262  65.395  49.168  0.00  0.00    +0.000 C 
ATOM     53  C   UNL     1      58.937  66.049  48.785  0.00  0.00    +0.000 C 
ATOM     54  C   UNL     1      58.992  66.797  49.128  0.00  0.00    +0.000 C 
ATOM     55  C   UNL     1      59.372  66.890  49.855  0.00  0.00    +0.000 C 
ATOM     56  C   UNL     1      59.697  66.236  50.238  0.00  0.00    +0.000 C 
ATOM     57  C   UNL     1      60.077  66.329  50.964  0.00  0.00    +0.000 C 
ATOM     58  O   UNL     1      60.401  65.674  51.346  0.00  0.00    +0.000 OA
ATOM     59  O   UNL     1      60.132  67.076  51.307  0.00  0.00    +0.000 OA
ATOM     60  O   UNL     1      60.996  63.616  51.768  0.00  0.00    +0.000 OA
ATOM     61  C   UNL     1      60.941  62.868  51.424  0.00  0.00    +0.000 C 
ATOM     62  C   UNL     1      59.538  69.134  50.886  0.00  0.00    +0.000 C 
ATOM     63  C   UNL     1      59.213  69.789  50.504  0.00  0.00    +0.000 C 
ATOM     64  C   UNL     1      59.269  70.537  50.848  0.00  0.00    +0.000 C 
ATOM     65  O   UNL     1      58.943  71.191  50.464  0.00  0.00    +0.000 OA
ATOM     66  C   UNL     1      58.564  71.098  49.739  0.00  0.00    +0.000 C 
ATOM     67  O   UNL     1      58.509  70.351  49.395  0.00  0.00    +0.000 OA
ATOM     68  C   UNL     1      58.239  71.754  49.356  0.00  0.00    +0.000 C 
ATOM     69  C   UNL     1      58.490  72.239  49.974  0.00  0.00    +0.000 C 
ATOM     70  C   UNL     1      57.914  72.408  48.974  0.00  0.00    +0.000 C 
ATOM     71  O   UNL     1      57.969  73.156  49.317  0.00  0.00    +0.000 OA
ATOM     72  C   UNL     1      57.988  71.268  48.738  0.00  0.00    +0.000 C 
ATOM     73  O   UNL     1      57.581  71.592  48.098  0.00  0.00    +0.000 OA
ENDROOT
TORSDOF 0
ENDMDL
