MODEL 1
REMARK VINA RESULT:    26.854      0.000      0.000
REMARK INTER + INTRA:          26.854
REMARK INTER:                  26.854
REMARK INTRA:                   0.000
REMARK UNBOUND:                 0.000
ROOT
REMARK  Name = tenapanor
REMARK                            x       y       z     vdW  Elec       q    Type
REMARK                         _______ _______ _______ _____ _____    ______ ____
ATOM      1  C   UNL     1      82.042  57.232  49.763  0.00  0.00    +0.000 C 
ATOM      2  N   UNL     1      82.061  58.008  50.041  0.00  0.00    +0.000 NA
ATOM      3  C   UNL     1      82.036  58.157  50.853  0.00  0.00    +0.000 C 
ATOM      4  C   UNL     1      82.056  58.933  51.130  0.00  0.00    +0.000 C 
ATOM      5  C   UNL     1      82.031  59.081  51.942  0.00  0.00    +0.000 A 
ATOM      6  C   UNL     1      81.987  58.454  52.475  0.00  0.00    +0.000 A 
ATOM      7  C   UNL     1      81.962  58.601  53.286  0.00  0.00    +0.000 A 
ATOM      8  C   UNL     1      81.981  59.379  53.564  0.00  0.00    +0.000 A 
ATOM      9  C   UNL     1      82.025  60.006  53.032  0.00  0.00    +0.000 A 
ATOM     10  C   UNL     1      82.050  59.858  52.220  0.00  0.00    +0.000 A 
ATOM     11  S   UNL     1      82.045  60.783  53.309  0.00  0.00    +0.000 S 
ATOM     12  O   UNL     1      82.005  60.506  54.085  0.00  0.00    +0.000 OA
ATOM     13  O   UNL     1      82.085  61.060  52.533  0.00  0.00    +0.000 OA
ATOM     14  N   UNL     1      82.064  61.560  53.588  0.00  0.00    +0.000 NA
ATOM     15  C   UNL     1      82.039  61.707  54.399  0.00  0.00    +0.000 C 
ATOM     16  C   UNL     1      82.059  62.484  54.677  0.00  0.00    +0.000 C 
ATOM     17  O   UNL     1      82.034  62.632  55.488  0.00  0.00    +0.000 OA
ATOM     18  C   UNL     1      82.053  63.409  55.767  0.00  0.00    +0.000 C 
ATOM     19  C   UNL     1      82.028  63.557  56.578  0.00  0.00    +0.000 C 
ATOM     20  O   UNL     1      82.048  64.333  56.855  0.00  0.00    +0.000 OA
ATOM     21  C   UNL     1      82.023  64.481  57.667  0.00  0.00    +0.000 C 
ATOM     22  C   UNL     1      82.042  65.258  57.945  0.00  0.00    +0.000 C 
ATOM     23  N   UNL     1      82.017  65.406  58.757  0.00  0.00    +0.000 NA
ATOM     24  C   UNL     1      82.036  66.182  59.034  0.00  0.00    +0.000 C 
ATOM     25  O   UNL     1      82.081  66.810  58.502  0.00  0.00    +0.000 OA
ATOM     26  N   UNL     1      82.012  66.331  59.846  0.00  0.00    +0.000 NA
ATOM     27  C   UNL     1      82.031  67.107  60.124  0.00  0.00    +0.000 C 
ATOM     28  C   UNL     1      82.006  67.255  60.936  0.00  0.00    +0.000 C 
ATOM     29  C   UNL     1      82.025  68.032  61.213  0.00  0.00    +0.000 C 
ATOM     30  C   UNL     1      82.001  68.180  62.025  0.00  0.00    +0.000 C 
ATOM     31  N   UNL     1      82.020  68.957  62.303  0.00  0.00    +0.000 NA
ATOM     32  C   UNL     1      81.995  69.105  63.115  0.00  0.00    +0.000 C 
ATOM     33  O   UNL     1      81.951  68.477  63.648  0.00  0.00    +0.000 OA
ATOM     34  N   UNL     1      82.014  69.881  63.392  0.00  0.00    +0.000 NA
ATOM     35  C   UNL     1      81.989  70.029  64.204  0.00  0.00    +0.000 C 
ATOM     36  C   UNL     1      82.009  70.806  64.482  0.00  0.00    +0.000 C 
ATOM     37  O   UNL     1      81.984  70.954  65.294  0.00  0.00    +0.000 OA
ATOM     38  C   UNL     1      82.003  71.731  65.571  0.00  0.00    +0.000 C 
ATOM     39  C   UNL     1      81.978  71.879  66.383  0.00  0.00    +0.000 C 
ATOM     40  O   UNL     1      81.998  72.655  66.661  0.00  0.00    +0.000 OA
ATOM     41  C   UNL     1      81.973  72.803  67.472  0.00  0.00    +0.000 C 
ATOM     42  C   UNL     1      81.992  73.580  67.750  0.00  0.00    +0.000 C 
ATOM     43  N   UNL     1      81.967  73.728  68.561  0.00  0.00    +0.000 NA
ATOM     44  S   UNL     1      81.987  74.505  68.840  0.00  0.00    +0.000 S 
ATOM     45  O   UNL     1      81.947  74.227  69.616  0.00  0.00    +0.000 OA
ATOM     46  O   UNL     1      82.027  74.781  68.063  0.00  0.00    +0.000 OA
ATOM     47  C   UNL     1      82.006  75.280  69.118  0.00  0.00    +0.000 A 
ATOM     48  C   UNL     1      81.981  75.429  69.929  0.00  0.00    +0.000 A 
ATOM     49  C   UNL     1      82.001  76.205  70.207  0.00  0.00    +0.000 A 
ATOM     50  C   UNL     1      82.045  76.833  69.674  0.00  0.00    +0.000 A 
ATOM     51  C   UNL     1      82.070  76.686  68.863  0.00  0.00    +0.000 A 
ATOM     52  C   UNL     1      82.050  75.909  68.585  0.00  0.00    +0.000 A 
ATOM     53  C   UNL     1      81.976  76.354  71.019  0.00  0.00    +0.000 C 
ATOM     54  C   UNL     1      81.931  75.725  71.552  0.00  0.00    +0.000 C 
ATOM     55  N   UNL     1      81.907  75.873  72.363  0.00  0.00    +0.000 NA
ATOM     56  C   UNL     1      81.862  75.245  72.896  0.00  0.00    +0.000 C 
ATOM     57  C   UNL     1      81.926  76.650  72.642  0.00  0.00    +0.000 C 
ATOM     58  C   UNL     1      81.970  77.279  72.108  0.00  0.00    +0.000 A 
ATOM     59  C   UNL     1      81.990  78.054  72.386  0.00  0.00    +0.000 A 
ATOM     60 CL   UNL     1      81.965  78.203  73.198  0.00  0.00    +0.000 Cl
ATOM     61  C   UNL     1      82.034  78.683  71.853  0.00  0.00    +0.000 A 
ATOM     62  C   UNL     1      82.059  78.535  71.042  0.00  0.00    +0.000 A 
ATOM     63 CL   UNL     1      82.103  79.163  70.510  0.00  0.00    +0.000 Cl
ATOM     64  C   UNL     1      82.039  77.758  70.764  0.00  0.00    +0.000 A 
ATOM     65  C   UNL     1      81.995  77.130  71.297  0.00  0.00    +0.000 A 
ATOM     66  C   UNL     1      82.100  59.561  50.597  0.00  0.00    +0.000 A 
ATOM     67  C   UNL     1      82.119  60.338  50.876  0.00  0.00    +0.000 A 
ATOM     68  C   UNL     1      82.164  60.967  50.343  0.00  0.00    +0.000 A 
ATOM     69 CL   UNL     1      82.183  61.742  50.621  0.00  0.00    +0.000 Cl
ATOM     70  C   UNL     1      82.189  60.818  49.532  0.00  0.00    +0.000 A 
ATOM     71  C   UNL     1      82.169  60.042  49.253  0.00  0.00    +0.000 A 
ATOM     72 CL   UNL     1      82.194  59.893  48.442  0.00  0.00    +0.000 Cl
ATOM     73  C   UNL     1      82.125  59.413  49.787  0.00  0.00    +0.000 A 
ATOM     74  C   UNL     1      82.106  58.637  49.508  0.00  0.00    +0.000 C 
ENDROOT
TORSDOF 0
ENDMDL
