MODEL 1
REMARK VINA RESULT:    -9.081      0.000      0.000
REMARK INTER + INTRA:          -9.081
REMARK INTER:                  -9.081
REMARK INTRA:                   0.000
REMARK UNBOUND:                 0.000
ROOT
REMARK  Name = tenofovir
REMARK                            x       y       z     vdW  Elec       q    Type
REMARK                         _______ _______ _______ _____ _____    ______ ____
ATOM      1  C   UNL     1      60.544  62.558  67.487  0.00  0.00    +0.000 C 
ATOM      2  C   UNL     1      61.286  62.896  67.358  0.00  0.00    +0.000 C 
ATOM      3  C   UNL     1      61.676  62.775  66.641  0.00  0.00    +0.000 C 
ATOM      4  N   UNL     1      61.323  62.316  66.053  0.00  0.00    +0.000 N 
ATOM      5  C   UNL     1      60.588  61.945  66.102  0.00  0.00    +0.000 A 
ATOM      6  N   UNL     1      60.454  61.547  65.392  0.00  0.00    +0.000 NA
ATOM      7  C   UNL     1      61.107  61.672  64.904  0.00  0.00    +0.000 A 
ATOM      8  C   UNL     1      61.283  61.415  64.140  0.00  0.00    +0.000 A 
ATOM      9  N   UNL     1      60.746  60.940  63.731  0.00  0.00    +0.000 NA
ATOM     10  N   UNL     1      61.994  61.632  63.784  0.00  0.00    +0.000 NA
ATOM     11  C   UNL     1      62.531  62.107  64.193  0.00  0.00    +0.000 A 
ATOM     12  N   UNL     1      62.357  62.364  64.957  0.00  0.00    +0.000 NA
ATOM     13  C   UNL     1      61.644  62.147  65.312  0.00  0.00    +0.000 A 
ATOM     14  O   UNL     1      61.639  63.355  67.947  0.00  0.00    +0.000 OA
ATOM     15  C   UNL     1      61.250  63.476  68.664  0.00  0.00    +0.000 C 
ATOM     16  P   UNL     1      61.602  63.935  69.252  0.00  0.00    +0.000 P 
ATOM     17  O   UNL     1      61.954  64.394  69.840  0.00  0.00    +0.000 OA
ATOM     18  O   UNL     1      60.948  63.810  69.741  0.00  0.00    +0.000 OA
ATOM     19  O   UNL     1      62.255  64.059  68.763  0.00  0.00    +0.000 OA
ENDROOT
TORSDOF 0
ENDMDL
MODEL 2
REMARK VINA RESULT:    -8.917      2.805      4.510
REMARK INTER + INTRA:          -8.917
REMARK INTER:                  -8.917
REMARK INTRA:                   0.000
REMARK UNBOUND:                 0.000
ROOT
REMARK  Name = tenofovir
REMARK                            x       y       z     vdW  Elec       q    Type
REMARK                         _______ _______ _______ _____ _____    ______ ____
ATOM      1  C   UNL     1      60.582  62.402  66.568  0.00  0.00    +0.000 C 
ATOM      2  C   UNL     1      61.367  62.655  66.577  0.00  0.00    +0.000 C 
ATOM      3  C   UNL     1      61.662  63.063  67.231  0.00  0.00    +0.000 C 
ATOM      4  N   UNL     1      61.171  63.218  67.876  0.00  0.00    +0.000 N 
ATOM      5  C   UNL     1      60.379  63.000  67.945  0.00  0.00    +0.000 A 
ATOM      6  N   UNL     1      60.104  63.265  68.677  0.00  0.00    +0.000 NA
ATOM      7  C   UNL     1      60.727  63.646  69.059  0.00  0.00    +0.000 A 
ATOM      8  C   UNL     1      60.780  64.017  69.795  0.00  0.00    +0.000 A 
ATOM      9  N   UNL     1      60.121  64.046  70.290  0.00  0.00    +0.000 NA
ATOM     10  N   UNL     1      61.491  64.358  70.035  0.00  0.00    +0.000 NA
ATOM     11  C   UNL     1      62.151  64.329  69.540  0.00  0.00    +0.000 A 
ATOM     12  N   UNL     1      62.099  63.959  68.804  0.00  0.00    +0.000 NA
ATOM     13  C   UNL     1      61.387  63.617  68.564  0.00  0.00    +0.000 A 
ATOM     14  O   UNL     1      61.858  62.501  65.932  0.00  0.00    +0.000 OA
ATOM     15  C   UNL     1      61.564  62.093  65.278  0.00  0.00    +0.000 C 
ATOM     16  P   UNL     1      62.054  61.938  64.633  0.00  0.00    +0.000 P 
ATOM     17  O   UNL     1      62.545  61.783  63.988  0.00  0.00    +0.000 OA
ATOM     18  O   UNL     1      61.431  61.556  64.250  0.00  0.00    +0.000 OA
ATOM     19  O   UNL     1      62.678  62.320  65.016  0.00  0.00    +0.000 OA
ENDROOT
TORSDOF 0
ENDMDL
MODEL 3
REMARK VINA RESULT:    -8.359      1.571      2.480
REMARK INTER + INTRA:          -8.359
REMARK INTER:                  -8.359
REMARK INTRA:                   0.000
REMARK UNBOUND:                 0.000
ROOT
REMARK  Name = tenofovir
REMARK                            x       y       z     vdW  Elec       q    Type
REMARK                         _______ _______ _______ _____ _____    ______ ____
ATOM      1  C   UNL     1      61.306  64.000  69.503  0.00  0.00    +0.000 C 
ATOM      2  C   UNL     1      61.990  63.863  69.063  0.00  0.00    +0.000 C 
ATOM      3  C   UNL     1      61.940  63.492  68.328  0.00  0.00    +0.000 C 
ATOM      4  N   UNL     1      61.205  63.259  68.033  0.00  0.00    +0.000 N 
ATOM      5  C   UNL     1      60.478  63.360  68.408  0.00  0.00    +0.000 A 
ATOM      6  N   UNL     1      59.892  63.048  67.918  0.00  0.00    +0.000 NA
ATOM      7  C   UNL     1      60.258  62.754  67.240  0.00  0.00    +0.000 A 
ATOM      8  C   UNL     1      59.958  62.385  66.566  0.00  0.00    +0.000 A 
ATOM      9  N   UNL     1      59.146  62.254  66.495  0.00  0.00    +0.000 NA
ATOM     10  N   UNL     1      60.468  62.146  65.964  0.00  0.00    +0.000 NA
ATOM     11  C   UNL     1      61.279  62.277  66.035  0.00  0.00    +0.000 A 
ATOM     12  N   UNL     1      61.581  62.646  66.708  0.00  0.00    +0.000 NA
ATOM     13  C   UNL     1      61.069  62.885  67.311  0.00  0.00    +0.000 A 
ATOM     14  O   UNL     1      62.725  64.095  69.359  0.00  0.00    +0.000 OA
ATOM     15  C   UNL     1      62.775  64.466  70.094  0.00  0.00    +0.000 C 
ATOM     16  P   UNL     1      63.509  64.699  70.389  0.00  0.00    +0.000 P 
ATOM     17  O   UNL     1      64.244  64.932  70.685  0.00  0.00    +0.000 OA
ATOM     18  O   UNL     1      63.143  64.992  71.068  0.00  0.00    +0.000 OA
ATOM     19  O   UNL     1      63.875  64.405  69.710  0.00  0.00    +0.000 OA
ENDROOT
TORSDOF 0
ENDMDL
MODEL 4
REMARK VINA RESULT:    -8.166      3.131      4.974
REMARK INTER + INTRA:          -8.166
REMARK INTER:                  -8.166
REMARK INTRA:                   0.000
REMARK UNBOUND:                 0.000
ROOT
REMARK  Name = tenofovir
REMARK                            x       y       z     vdW  Elec       q    Type
REMARK                         _______ _______ _______ _____ _____    ______ ____
ATOM      1  C   UNL     1      60.742  62.847  68.197  0.00  0.00    +0.000 C 
ATOM      2  C   UNL     1      61.466  63.103  67.894  0.00  0.00    +0.000 C 
ATOM      3  C   UNL     1      61.990  63.521  68.374  0.00  0.00    +0.000 C 
ATOM      4  N   UNL     1      61.791  63.683  69.159  0.00  0.00    +0.000 N 
ATOM      5  C   UNL     1      61.091  63.463  69.536  0.00  0.00    +0.000 A 
ATOM      6  N   UNL     1      61.124  63.738  70.314  0.00  0.00    +0.000 NA
ATOM      7  C   UNL     1      61.844  64.126  70.416  0.00  0.00    +0.000 A 
ATOM      8  C   UNL     1      62.179  64.507  71.067  0.00  0.00    +0.000 A 
ATOM      9  N   UNL     1      61.767  64.541  71.781  0.00  0.00    +0.000 NA
ATOM     10  N   UNL     1      62.924  64.854  71.005  0.00  0.00    +0.000 NA
ATOM     11  C   UNL     1      63.336  64.820  70.291  0.00  0.00    +0.000 A 
ATOM     12  N   UNL     1      63.002  64.440  69.639  0.00  0.00    +0.000 NA
ATOM     13  C   UNL     1      62.256  64.093  69.702  0.00  0.00    +0.000 A 
ATOM     14  O   UNL     1      61.665  62.941  67.109  0.00  0.00    +0.000 OA
ATOM     15  C   UNL     1      61.141  62.523  66.628  0.00  0.00    +0.000 C 
ATOM     16  P   UNL     1      61.340  62.362  65.845  0.00  0.00    +0.000 P 
ATOM     17  O   UNL     1      61.539  62.200  65.060  0.00  0.00    +0.000 OA
ATOM     18  O   UNL     1      60.619  61.972  65.742  0.00  0.00    +0.000 OA
ATOM     19  O   UNL     1      62.060  62.751  65.947  0.00  0.00    +0.000 OA
ENDROOT
TORSDOF 0
ENDMDL
MODEL 5
REMARK VINA RESULT:    -8.108      5.608      6.842
REMARK INTER + INTRA:          -8.108
REMARK INTER:                  -8.108
REMARK INTRA:                   0.000
REMARK UNBOUND:                 0.000
ROOT
REMARK  Name = tenofovir
REMARK                            x       y       z     vdW  Elec       q    Type
REMARK                         _______ _______ _______ _____ _____    ______ ____
ATOM      1  C   UNL     1      63.077  65.195  70.086  0.00  0.00    +0.000 C 
ATOM      2  C   UNL     1      63.258  65.091  70.884  0.00  0.00    +0.000 C 
ATOM      3  C   UNL     1      63.915  65.468  71.211  0.00  0.00    +0.000 C 
ATOM      4  N   UNL     1      64.390  65.951  70.740  0.00  0.00    +0.000 N 
ATOM      5  C   UNL     1      64.278  66.106  69.938  0.00  0.00    +0.000 A 
ATOM      6  N   UNL     1      64.880  66.614  69.690  0.00  0.00    +0.000 NA
ATOM      7  C   UNL     1      65.363  66.772  70.339  0.00  0.00    +0.000 A 
ATOM      8  C   UNL     1      66.040  67.236  70.424  0.00  0.00    +0.000 A 
ATOM      9  N   UNL     1      66.343  67.646  69.775  0.00  0.00    +0.000 NA
ATOM     10  N   UNL     1      66.414  67.290  71.157  0.00  0.00    +0.000 NA
ATOM     11  C   UNL     1      66.112  66.880  71.805  0.00  0.00    +0.000 A 
ATOM     12  N   UNL     1      65.435  66.416  71.722  0.00  0.00    +0.000 NA
ATOM     13  C   UNL     1      65.060  66.362  70.988  0.00  0.00    +0.000 A 
ATOM     14  O   UNL     1      62.783  64.608  71.356  0.00  0.00    +0.000 OA
ATOM     15  C   UNL     1      62.126  64.230  71.029  0.00  0.00    +0.000 C 
ATOM     16  P   UNL     1      61.651  63.748  71.500  0.00  0.00    +0.000 P 
ATOM     17  O   UNL     1      61.175  63.265  71.971  0.00  0.00    +0.000 OA
ATOM     18  O   UNL     1      61.167  63.590  70.850  0.00  0.00    +0.000 OA
ATOM     19  O   UNL     1      62.135  63.906  72.150  0.00  0.00    +0.000 OA
ENDROOT
TORSDOF 0
ENDMDL
MODEL 6
REMARK VINA RESULT:    -8.011      3.049      4.358
REMARK INTER + INTRA:          -8.011
REMARK INTER:                  -8.011
REMARK INTRA:                   0.000
REMARK UNBOUND:                 0.000
ROOT
REMARK  Name = tenofovir
REMARK                            x       y       z     vdW  Elec       q    Type
REMARK                         _______ _______ _______ _____ _____    ______ ____
ATOM      1  C   UNL     1      60.197  65.898  69.414  0.00  0.00    +0.000 C 
ATOM      2  C   UNL     1      59.952  65.424  70.043  0.00  0.00    +0.000 C 
ATOM      3  C   UNL     1      60.026  64.604  69.996  0.00  0.00    +0.000 C 
ATOM      4  N   UNL     1      60.344  64.257  69.318  0.00  0.00    +0.000 N 
ATOM      5  C   UNL     1      60.611  64.658  68.648  0.00  0.00    +0.000 A 
ATOM      6  N   UNL     1      60.883  64.098  68.107  0.00  0.00    +0.000 NA
ATOM      7  C   UNL     1      60.784  63.351  68.442  0.00  0.00    +0.000 A 
ATOM      8  C   UNL     1      60.955  62.593  68.164  0.00  0.00    +0.000 A 
ATOM      9  N   UNL     1      61.288  62.495  67.415  0.00  0.00    +0.000 NA
ATOM     10  N   UNL     1      60.792  61.935  68.632  0.00  0.00    +0.000 NA
ATOM     11  C   UNL     1      60.459  62.033  69.381  0.00  0.00    +0.000 A 
ATOM     12  N   UNL     1      60.288  62.790  69.660  0.00  0.00    +0.000 NA
ATOM     13  C   UNL     1      60.451  63.450  69.191  0.00  0.00    +0.000 A 
ATOM     14  O   UNL     1      59.634  65.771  70.722  0.00  0.00    +0.000 OA
ATOM     15  C   UNL     1      59.560  66.591  70.770  0.00  0.00    +0.000 C 
ATOM     16  P   UNL     1      59.242  66.937  71.447  0.00  0.00    +0.000 P 
ATOM     17  O   UNL     1      58.924  67.284  72.126  0.00  0.00    +0.000 OA
ATOM     18  O   UNL     1      59.341  67.685  71.112  0.00  0.00    +0.000 OA
ATOM     19  O   UNL     1      59.144  66.190  71.783  0.00  0.00    +0.000 OA
ENDROOT
TORSDOF 0
ENDMDL
MODEL 7
REMARK VINA RESULT:    -7.981      5.103      6.145
REMARK INTER + INTRA:          -7.981
REMARK INTER:                  -7.981
REMARK INTRA:                   0.000
REMARK UNBOUND:                 0.000
ROOT
REMARK  Name = tenofovir
REMARK                            x       y       z     vdW  Elec       q    Type
REMARK                         _______ _______ _______ _____ _____    ______ ____
ATOM      1  C   UNL     1      64.289  65.470  69.649  0.00  0.00    +0.000 C 
ATOM      2  C   UNL     1      64.230  65.733  70.429  0.00  0.00    +0.000 C 
ATOM      3  C   UNL     1      63.690  65.380  70.944  0.00  0.00    +0.000 C 
ATOM      4  N   UNL     1      63.209  64.765  70.678  0.00  0.00    +0.000 N 
ATOM      5  C   UNL     1      63.206  64.445  69.918  0.00  0.00    +0.000 A 
ATOM      6  N   UNL     1      62.641  63.844  69.896  0.00  0.00    +0.000 NA
ATOM      7  C   UNL     1      62.296  63.792  70.643  0.00  0.00    +0.000 A 
ATOM      8  C   UNL     1      61.707  63.300  70.946  0.00  0.00    +0.000 A 
ATOM      9  N   UNL     1      61.356  62.731  70.462  0.00  0.00    +0.000 NA
ATOM     10  N   UNL     1      61.469  63.377  71.731  0.00  0.00    +0.000 NA
ATOM     11  C   UNL     1      61.819  63.946  72.215  0.00  0.00    +0.000 A 
ATOM     12  N   UNL     1      62.408  64.438  71.913  0.00  0.00    +0.000 NA
ATOM     13  C   UNL     1      62.647  64.361  71.126  0.00  0.00    +0.000 A 
ATOM     14  O   UNL     1      64.712  66.348  70.695  0.00  0.00    +0.000 OA
ATOM     15  C   UNL     1      65.252  66.701  70.181  0.00  0.00    +0.000 C 
ATOM     16  P   UNL     1      65.733  67.316  70.446  0.00  0.00    +0.000 P 
ATOM     17  O   UNL     1      66.214  67.932  70.712  0.00  0.00    +0.000 OA
ATOM     18  O   UNL     1      66.079  67.368  69.698  0.00  0.00    +0.000 OA
ATOM     19  O   UNL     1      65.387  67.264  71.193  0.00  0.00    +0.000 OA
ENDROOT
TORSDOF 0
ENDMDL
MODEL 8
REMARK VINA RESULT:    -7.945      2.888      4.162
REMARK INTER + INTRA:          -7.945
REMARK INTER:                  -7.945
REMARK INTRA:                   0.000
REMARK UNBOUND:                 0.000
ROOT
REMARK  Name = tenofovir
REMARK                            x       y       z     vdW  Elec       q    Type
REMARK                         _______ _______ _______ _____ _____    ______ ____
ATOM      1  C   UNL     1      62.980  64.474  70.693  0.00  0.00    +0.000 C 
ATOM      2  C   UNL     1      63.142  64.733  69.927  0.00  0.00    +0.000 C 
ATOM      3  C   UNL     1      62.734  64.410  69.287  0.00  0.00    +0.000 C 
ATOM      4  N   UNL     1      62.165  63.826  69.414  0.00  0.00    +0.000 N 
ATOM      5  C   UNL     1      61.945  63.514  70.145  0.00  0.00    +0.000 A 
ATOM      6  N   UNL     1      61.359  62.947  70.014  0.00  0.00    +0.000 NA
ATOM      7  C   UNL     1      61.217  62.910  69.203  0.00  0.00    +0.000 A 
ATOM      8  C   UNL     1      60.699  62.451  68.753  0.00  0.00    +0.000 A 
ATOM      9  N   UNL     1      60.201  61.908  69.125  0.00  0.00    +0.000 NA
ATOM     10  N   UNL     1      60.678  62.536  67.934  0.00  0.00    +0.000 NA
ATOM     11  C   UNL     1      61.176  63.079  67.562  0.00  0.00    +0.000 A 
ATOM     12  N   UNL     1      61.695  63.538  68.011  0.00  0.00    +0.000 NA
ATOM     13  C   UNL     1      61.715  63.453  68.832  0.00  0.00    +0.000 A 
ATOM     14  O   UNL     1      63.712  65.317  69.800  0.00  0.00    +0.000 OA
ATOM     15  C   UNL     1      64.120  65.641  70.440  0.00  0.00    +0.000 C 
ATOM     16  P   UNL     1      64.689  66.224  70.313  0.00  0.00    +0.000 P 
ATOM     17  O   UNL     1      65.258  66.808  70.187  0.00  0.00    +0.000 OA
ATOM     18  O   UNL     1      64.831  66.262  71.126  0.00  0.00    +0.000 OA
ATOM     19  O   UNL     1      64.547  66.187  69.501  0.00  0.00    +0.000 OA
ENDROOT
TORSDOF 0
ENDMDL
MODEL 9
REMARK VINA RESULT:    -7.207      4.524      6.392
REMARK INTER + INTRA:          -7.207
REMARK INTER:                  -7.207
REMARK INTRA:                   0.000
REMARK UNBOUND:                 0.000
ROOT
REMARK  Name = tenofovir
REMARK                            x       y       z     vdW  Elec       q    Type
REMARK                         _______ _______ _______ _____ _____    ______ ____
ATOM      1  C   UNL     1      60.582  64.846  69.450  0.00  0.00    +0.000 C 
ATOM      2  C   UNL     1      60.902  64.293  69.972  0.00  0.00    +0.000 C 
ATOM      3  C   UNL     1      61.246  64.543  70.679  0.00  0.00    +0.000 C 
ATOM      4  N   UNL     1      61.270  65.347  70.863  0.00  0.00    +0.000 N 
ATOM      5  C   UNL     1      60.974  65.960  70.398  0.00  0.00    +0.000 A 
ATOM      6  N   UNL     1      61.116  66.672  70.793  0.00  0.00    +0.000 NA
ATOM      7  C   UNL     1      61.499  66.497  71.502  0.00  0.00    +0.000 A 
ATOM      8  C   UNL     1      61.774  66.977  72.114  0.00  0.00    +0.000 A 
ATOM      9  N   UNL     1      61.678  67.795  72.070  0.00  0.00    +0.000 NA
ATOM     10  N   UNL     1      62.144  66.640  72.769  0.00  0.00    +0.000 NA
ATOM     11  C   UNL     1      62.240  65.822  72.812  0.00  0.00    +0.000 A 
ATOM     12  N   UNL     1      61.966  65.341  72.201  0.00  0.00    +0.000 NA
ATOM     13  C   UNL     1      61.595  65.679  71.545  0.00  0.00    +0.000 A 
ATOM     14  O   UNL     1      60.878  63.489  69.787  0.00  0.00    +0.000 OA
ATOM     15  C   UNL     1      60.534  63.238  69.081  0.00  0.00    +0.000 C 
ATOM     16  P   UNL     1      60.509  62.435  68.896  0.00  0.00    +0.000 P 
ATOM     17  O   UNL     1      60.485  61.630  68.712  0.00  0.00    +0.000 OA
ATOM     18  O   UNL     1      60.125  62.609  68.187  0.00  0.00    +0.000 OA
ATOM     19  O   UNL     1      60.893  62.260  69.606  0.00  0.00    +0.000 OA
ENDROOT
TORSDOF 0
ENDMDL
