MODEL 1
REMARK VINA RESULT:   -12.569      0.000      0.000
REMARK INTER + INTRA:         -12.569
REMARK INTER:                 -12.569
REMARK INTRA:                   0.000
REMARK UNBOUND:                 0.000
ROOT
REMARK  Name = tepoxalin
REMARK                            x       y       z     vdW  Elec       q    Type
REMARK                         _______ _______ _______ _____ _____    ______ ____
ATOM      1  C   UNL     1      59.298  65.921  71.650  0.00  0.00    +0.000 C 
ATOM      2  O   UNL     1      59.418  66.134  70.862  0.00  0.00    +0.000 OA
ATOM      3  C   UNL     1      59.703  65.578  70.323  0.00  0.00    +0.000 A 
ATOM      4  C   UNL     1      59.823  65.791  69.536  0.00  0.00    +0.000 A 
ATOM      5  C   UNL     1      60.108  65.235  68.997  0.00  0.00    +0.000 A 
ATOM      6  C   UNL     1      60.273  64.466  69.246  0.00  0.00    +0.000 A 
ATOM      7  C   UNL     1      60.153  64.253  70.034  0.00  0.00    +0.000 A 
ATOM      8  C   UNL     1      59.868  64.809  70.573  0.00  0.00    +0.000 A 
ATOM      9  N   UNL     1      60.558  63.910  68.707  0.00  0.00    +0.000 N 
ATOM     10  N   UNL     1      60.704  64.042  67.906  0.00  0.00    +0.000 NA
ATOM     11  C   UNL     1      60.983  63.338  67.578  0.00  0.00    +0.000 A 
ATOM     12  C   UNL     1      61.198  63.221  66.791  0.00  0.00    +0.000 C 
ATOM     13  C   UNL     1      61.469  62.483  66.541  0.00  0.00    +0.000 C 
ATOM     14  C   UNL     1      61.684  62.366  65.754  0.00  0.00    +0.000 C 
ATOM     15  O   UNL     1      61.628  62.988  65.215  0.00  0.00    +0.000 OA
ATOM     16  N   UNL     1      61.955  61.628  65.506  0.00  0.00    +0.000 N 
ATOM     17  C   UNL     1      62.170  61.511  64.718  0.00  0.00    +0.000 C 
ATOM     18  O   UNL     1      62.011  61.006  66.045  0.00  0.00    +0.000 OA
ATOM     19  C   UNL     1      61.009  62.771  68.178  0.00  0.00    +0.000 A 
ATOM     20  C   UNL     1      60.746  63.125  68.875  0.00  0.00    +0.000 A 
ATOM     21  C   UNL     1      60.684  62.757  69.611  0.00  0.00    +0.000 A 
ATOM     22  C   UNL     1      60.894  61.964  69.695  0.00  0.00    +0.000 A 
ATOM     23  C   UNL     1      60.831  61.597  70.432  0.00  0.00    +0.000 A 
ATOM     24  C   UNL     1      60.558  62.023  71.083  0.00  0.00    +0.000 A 
ATOM     25 CL   UNL     1      60.494  61.656  71.819  0.00  0.00    +0.000 Cl
ATOM     26  C   UNL     1      60.347  62.816  70.998  0.00  0.00    +0.000 A 
ATOM     27  C   UNL     1      60.410  63.184  70.263  0.00  0.00    +0.000 A 
ENDROOT
TORSDOF 0
ENDMDL
MODEL 2
REMARK VINA RESULT:   -12.543      1.096      1.527
REMARK INTER + INTRA:         -12.543
REMARK INTER:                 -12.543
REMARK INTRA:                   0.000
REMARK UNBOUND:                 0.000
ROOT
REMARK  Name = tepoxalin
REMARK                            x       y       z     vdW  Elec       q    Type
REMARK                         _______ _______ _______ _____ _____    ______ ____
ATOM      1  C   UNL     1      59.432  66.231  73.199  0.00  0.00    +0.000 C 
ATOM      2  O   UNL     1      59.273  66.387  72.405  0.00  0.00    +0.000 OA
ATOM      3  C   UNL     1      59.519  65.856  71.823  0.00  0.00    +0.000 A 
ATOM      4  C   UNL     1      59.360  66.012  71.029  0.00  0.00    +0.000 A 
ATOM      5  C   UNL     1      59.606  65.481  70.447  0.00  0.00    +0.000 A 
ATOM      6  C   UNL     1      60.012  64.795  70.660  0.00  0.00    +0.000 A 
ATOM      7  C   UNL     1      60.172  64.639  71.454  0.00  0.00    +0.000 A 
ATOM      8  C   UNL     1      59.925  65.170  72.036  0.00  0.00    +0.000 A 
ATOM      9  N   UNL     1      60.259  64.265  70.078  0.00  0.00    +0.000 N 
ATOM     10  N   UNL     1      60.140  64.346  69.266  0.00  0.00    +0.000 NA
ATOM     11  C   UNL     1      60.475  63.691  68.892  0.00  0.00    +0.000 A 
ATOM     12  C   UNL     1      60.483  63.548  68.080  0.00  0.00    +0.000 C 
ATOM     13  C   UNL     1      60.841  62.865  67.784  0.00  0.00    +0.000 C 
ATOM     14  C   UNL     1      60.848  62.722  66.973  0.00  0.00    +0.000 C 
ATOM     15  O   UNL     1      60.498  63.260  66.455  0.00  0.00    +0.000 OA
ATOM     16  N   UNL     1      61.206  62.040  66.678  0.00  0.00    +0.000 N 
ATOM     17  C   UNL     1      61.214  61.896  65.865  0.00  0.00    +0.000 C 
ATOM     18  O   UNL     1      61.556  61.501  67.195  0.00  0.00    +0.000 OA
ATOM     19  C   UNL     1      60.801  63.206  69.474  0.00  0.00    +0.000 A 
ATOM     20  C   UNL     1      60.667  63.560  70.207  0.00  0.00    +0.000 A 
ATOM     21  C   UNL     1      60.902  63.262  70.939  0.00  0.00    +0.000 A 
ATOM     22  C   UNL     1      61.309  62.546  70.982  0.00  0.00    +0.000 A 
ATOM     23  C   UNL     1      61.544  62.248  71.715  0.00  0.00    +0.000 A 
ATOM     24  C   UNL     1      61.370  62.665  72.404  0.00  0.00    +0.000 A 
ATOM     25 CL   UNL     1      61.605  62.367  73.137  0.00  0.00    +0.000 Cl
ATOM     26  C   UNL     1      60.963  63.381  72.362  0.00  0.00    +0.000 A 
ATOM     27  C   UNL     1      60.728  63.680  71.629  0.00  0.00    +0.000 A 
ENDROOT
TORSDOF 0
ENDMDL
MODEL 3
REMARK VINA RESULT:   -12.117      2.485      2.634
REMARK INTER + INTRA:         -12.117
REMARK INTER:                 -12.117
REMARK INTRA:                   0.000
REMARK UNBOUND:                 0.000
ROOT
REMARK  Name = tepoxalin
REMARK                            x       y       z     vdW  Elec       q    Type
REMARK                         _______ _______ _______ _____ _____    ______ ____
ATOM      1  C   UNL     1      64.276  66.348  72.088  0.00  0.00    +0.000 C 
ATOM      2  O   UNL     1      64.228  66.412  71.267  0.00  0.00    +0.000 OA
ATOM      3  C   UNL     1      63.732  65.909  70.841  0.00  0.00    +0.000 A 
ATOM      4  C   UNL     1      63.684  65.975  70.021  0.00  0.00    +0.000 A 
ATOM      5  C   UNL     1      63.188  65.471  69.594  0.00  0.00    +0.000 A 
ATOM      6  C   UNL     1      62.739  64.903  69.991  0.00  0.00    +0.000 A 
ATOM      7  C   UNL     1      62.786  64.838  70.811  0.00  0.00    +0.000 A 
ATOM      8  C   UNL     1      63.283  65.341  71.237  0.00  0.00    +0.000 A 
ATOM      9  N   UNL     1      62.243  64.400  69.564  0.00  0.00    +0.000 N 
ATOM     10  N   UNL     1      62.138  64.400  68.746  0.00  0.00    +0.000 NA
ATOM     11  C   UNL     1      61.595  63.809  68.558  0.00  0.00    +0.000 A 
ATOM     12  C   UNL     1      61.329  63.617  67.801  0.00  0.00    +0.000 C 
ATOM     13  C   UNL     1      60.781  63.008  67.697  0.00  0.00    +0.000 C 
ATOM     14  C   UNL     1      60.516  62.816  66.941  0.00  0.00    +0.000 C 
ATOM     15  O   UNL     1      60.798  63.232  66.287  0.00  0.00    +0.000 OA
ATOM     16  N   UNL     1      59.969  62.208  66.838  0.00  0.00    +0.000 N 
ATOM     17  C   UNL     1      59.703  62.016  66.081  0.00  0.00    +0.000 C 
ATOM     18  O   UNL     1      59.686  61.792  67.492  0.00  0.00    +0.000 OA
ATOM     19  C   UNL     1      61.363  63.443  69.261  0.00  0.00    +0.000 A 
ATOM     20  C   UNL     1      61.764  63.809  69.882  0.00  0.00    +0.000 A 
ATOM     21  C   UNL     1      61.697  63.616  70.682  0.00  0.00    +0.000 A 
ATOM     22  C   UNL     1      61.192  63.008  70.919  0.00  0.00    +0.000 A 
ATOM     23  C   UNL     1      61.126  62.816  71.719  0.00  0.00    +0.000 A 
ATOM     24  C   UNL     1      61.563  63.232  72.280  0.00  0.00    +0.000 A 
ATOM     25 CL   UNL     1      61.496  63.040  73.080  0.00  0.00    +0.000 Cl
ATOM     26  C   UNL     1      62.067  63.840  72.044  0.00  0.00    +0.000 A 
ATOM     27  C   UNL     1      62.134  64.033  71.244  0.00  0.00    +0.000 A 
ENDROOT
TORSDOF 0
ENDMDL
MODEL 4
REMARK VINA RESULT:   -11.925      3.982      5.196
REMARK INTER + INTRA:         -11.925
REMARK INTER:                 -11.925
REMARK INTRA:                   0.000
REMARK UNBOUND:                 0.000
ROOT
REMARK  Name = tepoxalin
REMARK                            x       y       z     vdW  Elec       q    Type
REMARK                         _______ _______ _______ _____ _____    ______ ____
ATOM      1  C   UNL     1      63.522  69.441  73.046  0.00  0.00    +0.000 C 
ATOM      2  O   UNL     1      62.814  69.055  73.222  0.00  0.00    +0.000 OA
ATOM      3  C   UNL     1      62.675  68.295  72.931  0.00  0.00    +0.000 A 
ATOM      4  C   UNL     1      61.967  67.911  73.107  0.00  0.00    +0.000 A 
ATOM      5  C   UNL     1      61.828  67.151  72.816  0.00  0.00    +0.000 A 
ATOM      6  C   UNL     1      62.396  66.778  72.349  0.00  0.00    +0.000 A 
ATOM      7  C   UNL     1      63.104  67.162  72.173  0.00  0.00    +0.000 A 
ATOM      8  C   UNL     1      63.243  67.922  72.464  0.00  0.00    +0.000 A 
ATOM      9  N   UNL     1      62.256  66.018  72.058  0.00  0.00    +0.000 N 
ATOM     10  N   UNL     1      61.578  65.566  72.187  0.00  0.00    +0.000 NA
ATOM     11  C   UNL     1      61.673  64.846  71.796  0.00  0.00    +0.000 A 
ATOM     12  C   UNL     1      61.127  64.228  71.778  0.00  0.00    +0.000 C 
ATOM     13  C   UNL     1      61.299  63.537  71.362  0.00  0.00    +0.000 C 
ATOM     14  C   UNL     1      60.754  62.919  71.344  0.00  0.00    +0.000 C 
ATOM     15  O   UNL     1      60.036  62.991  71.744  0.00  0.00    +0.000 OA
ATOM     16  N   UNL     1      60.926  62.228  70.928  0.00  0.00    +0.000 N 
ATOM     17  C   UNL     1      60.380  61.609  70.910  0.00  0.00    +0.000 C 
ATOM     18  O   UNL     1      61.644  62.156  70.529  0.00  0.00    +0.000 OA
ATOM     19  C   UNL     1      62.410  64.853  71.425  0.00  0.00    +0.000 A 
ATOM     20  C   UNL     1      62.770  65.578  71.587  0.00  0.00    +0.000 A 
ATOM     21  C   UNL     1      63.514  65.818  71.324  0.00  0.00    +0.000 A 
ATOM     22  C   UNL     1      63.968  65.315  70.854  0.00  0.00    +0.000 A 
ATOM     23  C   UNL     1      64.712  65.557  70.591  0.00  0.00    +0.000 A 
ATOM     24  C   UNL     1      65.002  66.300  70.798  0.00  0.00    +0.000 A 
ATOM     25 CL   UNL     1      65.746  66.542  70.535  0.00  0.00    +0.000 Cl
ATOM     26  C   UNL     1      64.548  66.803  71.268  0.00  0.00    +0.000 A 
ATOM     27  C   UNL     1      63.804  66.563  71.532  0.00  0.00    +0.000 A 
ENDROOT
TORSDOF 0
ENDMDL
MODEL 5
REMARK VINA RESULT:   -11.734      4.054      5.022
REMARK INTER + INTRA:         -11.734
REMARK INTER:                 -11.734
REMARK INTRA:                   0.000
REMARK UNBOUND:                 0.000
ROOT
REMARK  Name = tepoxalin
REMARK                            x       y       z     vdW  Elec       q    Type
REMARK                         _______ _______ _______ _____ _____    ______ ____
ATOM      1  C   UNL     1      57.509  65.379  73.110  0.00  0.00    +0.000 C 
ATOM      2  O   UNL     1      57.987  66.041  73.223  0.00  0.00    +0.000 OA
ATOM      3  C   UNL     1      58.785  66.015  73.012  0.00  0.00    +0.000 A 
ATOM      4  C   UNL     1      59.263  66.677  73.124  0.00  0.00    +0.000 A 
ATOM      5  C   UNL     1      60.060  66.651  72.914  0.00  0.00    +0.000 A 
ATOM      6  C   UNL     1      60.378  65.962  72.590  0.00  0.00    +0.000 A 
ATOM      7  C   UNL     1      59.901  65.300  72.478  0.00  0.00    +0.000 A 
ATOM      8  C   UNL     1      59.103  65.326  72.688  0.00  0.00    +0.000 A 
ATOM      9  N   UNL     1      61.176  65.936  72.380  0.00  0.00    +0.000 N 
ATOM     10  N   UNL     1      61.719  66.551  72.459  0.00  0.00    +0.000 NA
ATOM     11  C   UNL     1      62.449  66.286  72.181  0.00  0.00    +0.000 A 
ATOM     12  C   UNL     1      63.148  66.722  72.159  0.00  0.00    +0.000 C 
ATOM     13  C   UNL     1      63.839  66.381  71.864  0.00  0.00    +0.000 C 
ATOM     14  C   UNL     1      64.538  66.818  71.841  0.00  0.00    +0.000 C 
ATOM     15  O   UNL     1      64.547  67.597  72.113  0.00  0.00    +0.000 OA
ATOM     16  N   UNL     1      65.228  66.477  71.546  0.00  0.00    +0.000 N 
ATOM     17  C   UNL     1      65.928  66.914  71.524  0.00  0.00    +0.000 C 
ATOM     18  O   UNL     1      65.220  65.698  71.274  0.00  0.00    +0.000 OA
ATOM     19  C   UNL     1      62.356  65.505  71.929  0.00  0.00    +0.000 A 
ATOM     20  C   UNL     1      61.569  65.289  72.052  0.00  0.00    +0.000 A 
ATOM     21  C   UNL     1      61.236  64.555  71.878  0.00  0.00    +0.000 A 
ATOM     22  C   UNL     1      61.701  63.958  71.550  0.00  0.00    +0.000 A 
ATOM     23  C   UNL     1      61.366  63.224  71.376  0.00  0.00    +0.000 A 
ATOM     24  C   UNL     1      60.567  63.088  71.529  0.00  0.00    +0.000 A 
ATOM     25 CL   UNL     1      60.233  62.354  71.355  0.00  0.00    +0.000 Cl
ATOM     26  C   UNL     1      60.103  63.685  71.857  0.00  0.00    +0.000 A 
ATOM     27  C   UNL     1      60.436  64.419  72.032  0.00  0.00    +0.000 A 
ENDROOT
TORSDOF 0
ENDMDL
MODEL 6
REMARK VINA RESULT:   -11.237      2.887      3.312
REMARK INTER + INTRA:         -11.237
REMARK INTER:                 -11.237
REMARK INTRA:                   0.000
REMARK UNBOUND:                 0.000
ROOT
REMARK  Name = tepoxalin
REMARK                            x       y       z     vdW  Elec       q    Type
REMARK                         _______ _______ _______ _____ _____    ______ ____
ATOM      1  C   UNL     1      62.349  68.012  72.894  0.00  0.00    +0.000 C 
ATOM      2  O   UNL     1      61.639  67.805  72.530  0.00  0.00    +0.000 OA
ATOM      3  C   UNL     1      61.628  67.218  71.950  0.00  0.00    +0.000 A 
ATOM      4  C   UNL     1      60.919  67.011  71.586  0.00  0.00    +0.000 A 
ATOM      5  C   UNL     1      60.908  66.423  71.006  0.00  0.00    +0.000 A 
ATOM      6  C   UNL     1      61.609  66.044  70.791  0.00  0.00    +0.000 A 
ATOM      7  C   UNL     1      62.319  66.251  71.155  0.00  0.00    +0.000 A 
ATOM      8  C   UNL     1      62.329  66.838  71.735  0.00  0.00    +0.000 A 
ATOM      9  N   UNL     1      61.598  65.457  70.211  0.00  0.00    +0.000 N 
ATOM     10  N   UNL     1      60.934  65.192  69.800  0.00  0.00    +0.000 NA
ATOM     11  C   UNL     1      61.175  64.603  69.275  0.00  0.00    +0.000 A 
ATOM     12  C   UNL     1      60.689  64.187  68.756  0.00  0.00    +0.000 C 
ATOM     13  C   UNL     1      61.010  63.610  68.261  0.00  0.00    +0.000 C 
ATOM     14  C   UNL     1      60.524  63.194  67.742  0.00  0.00    +0.000 C 
ATOM     15  O   UNL     1      59.715  63.354  67.716  0.00  0.00    +0.000 OA
ATOM     16  N   UNL     1      60.845  62.618  67.248  0.00  0.00    +0.000 N 
ATOM     17  C   UNL     1      60.359  62.201  66.728  0.00  0.00    +0.000 C 
ATOM     18  O   UNL     1      61.654  62.458  67.273  0.00  0.00    +0.000 OA
ATOM     19  C   UNL     1      61.990  64.504  69.362  0.00  0.00    +0.000 A 
ATOM     20  C   UNL     1      62.251  65.032  69.940  0.00  0.00    +0.000 A 
ATOM     21  C   UNL     1      63.029  65.118  70.201  0.00  0.00    +0.000 A 
ATOM     22  C   UNL     1      63.627  64.652  69.878  0.00  0.00    +0.000 A 
ATOM     23  C   UNL     1      64.405  64.739  70.139  0.00  0.00    +0.000 A 
ATOM     24  C   UNL     1      64.584  65.292  70.724  0.00  0.00    +0.000 A 
ATOM     25 CL   UNL     1      65.362  65.379  70.986  0.00  0.00    +0.000 Cl
ATOM     26  C   UNL     1      63.986  65.759  71.048  0.00  0.00    +0.000 A 
ATOM     27  C   UNL     1      63.208  65.672  70.787  0.00  0.00    +0.000 A 
ENDROOT
TORSDOF 0
ENDMDL
MODEL 7
REMARK VINA RESULT:   -11.221      3.480      5.380
REMARK INTER + INTRA:         -11.221
REMARK INTER:                 -11.221
REMARK INTRA:                   0.000
REMARK UNBOUND:                 0.000
ROOT
REMARK  Name = tepoxalin
REMARK                            x       y       z     vdW  Elec       q    Type
REMARK                         _______ _______ _______ _____ _____    ______ ____
ATOM      1  C   UNL     1      64.752  64.280  69.804  0.00  0.00    +0.000 C 
ATOM      2  O   UNL     1      64.407  65.018  69.930  0.00  0.00    +0.000 OA
ATOM      3  C   UNL     1      63.658  65.072  70.273  0.00  0.00    +0.000 A 
ATOM      4  C   UNL     1      63.314  65.810  70.399  0.00  0.00    +0.000 A 
ATOM      5  C   UNL     1      62.565  65.863  70.742  0.00  0.00    +0.000 A 
ATOM      6  C   UNL     1      62.162  65.177  70.960  0.00  0.00    +0.000 A 
ATOM      7  C   UNL     1      62.506  64.438  70.834  0.00  0.00    +0.000 A 
ATOM      8  C   UNL     1      63.255  64.385  70.491  0.00  0.00    +0.000 A 
ATOM      9  N   UNL     1      61.414  65.230  71.303  0.00  0.00    +0.000 N 
ATOM     10  N   UNL     1      61.001  65.926  71.462  0.00  0.00    +0.000 NA
ATOM     11  C   UNL     1      60.279  65.723  71.806  0.00  0.00    +0.000 A 
ATOM     12  C   UNL     1      59.694  66.249  72.052  0.00  0.00    +0.000 C 
ATOM     13  C   UNL     1      58.996  65.963  72.388  0.00  0.00    +0.000 C 
ATOM     14  C   UNL     1      58.411  66.489  72.634  0.00  0.00    +0.000 C 
ATOM     15  O   UNL     1      58.523  67.301  72.546  0.00  0.00    +0.000 OA
ATOM     16  N   UNL     1      57.714  66.203  72.969  0.00  0.00    +0.000 N 
ATOM     17  C   UNL     1      57.128  66.729  73.216  0.00  0.00    +0.000 C 
ATOM     18  O   UNL     1      57.602  65.390  73.058  0.00  0.00    +0.000 OA
ATOM     19  C   UNL     1      60.246  64.900  71.858  0.00  0.00    +0.000 A 
ATOM     20  C   UNL     1      60.947  64.596  71.548  0.00  0.00    +0.000 A 
ATOM     21  C   UNL     1      61.146  63.797  71.492  0.00  0.00    +0.000 A 
ATOM     22  C   UNL     1      60.620  63.221  71.762  0.00  0.00    +0.000 A 
ATOM     23  C   UNL     1      60.819  62.422  71.706  0.00  0.00    +0.000 A 
ATOM     24  C   UNL     1      61.544  62.200  71.381  0.00  0.00    +0.000 A 
ATOM     25 CL   UNL     1      61.743  61.401  71.325  0.00  0.00    +0.000 Cl
ATOM     26  C   UNL     1      62.069  62.775  71.112  0.00  0.00    +0.000 A 
ATOM     27  C   UNL     1      61.871  63.574  71.167  0.00  0.00    +0.000 A 
ENDROOT
TORSDOF 0
ENDMDL
MODEL 8
REMARK VINA RESULT:   -10.090     24.960     26.790
REMARK INTER + INTRA:         -10.090
REMARK INTER:                 -10.090
REMARK INTRA:                   0.000
REMARK UNBOUND:                 0.000
ROOT
REMARK  Name = tepoxalin
REMARK                            x       y       z     vdW  Elec       q    Type
REMARK                         _______ _______ _______ _____ _____    ______ ____
ATOM      1  C   UNL     1      72.880  78.877  48.311  0.00  0.00    +0.000 C 
ATOM      2  O   UNL     1      72.062  78.770  48.301  0.00  0.00    +0.000 OA
ATOM      3  C   UNL     1      71.596  79.101  48.897  0.00  0.00    +0.000 A 
ATOM      4  C   UNL     1      70.779  78.994  48.887  0.00  0.00    +0.000 A 
ATOM      5  C   UNL     1      70.312  79.325  49.483  0.00  0.00    +0.000 A 
ATOM      6  C   UNL     1      70.665  79.762  50.087  0.00  0.00    +0.000 A 
ATOM      7  C   UNL     1      71.482  79.869  50.097  0.00  0.00    +0.000 A 
ATOM      8  C   UNL     1      71.948  79.538  49.501  0.00  0.00    +0.000 A 
ATOM      9  N   UNL     1      70.199  80.093  50.682  0.00  0.00    +0.000 N 
ATOM     10  N   UNL     1      69.378  80.033  50.746  0.00  0.00    +0.000 NA
ATOM     11  C   UNL     1      69.143  80.444  51.421  0.00  0.00    +0.000 A 
ATOM     12  C   UNL     1      68.370  80.527  51.694  0.00  0.00    +0.000 C 
ATOM     13  C   UNL     1      68.219  80.957  52.382  0.00  0.00    +0.000 C 
ATOM     14  C   UNL     1      67.445  81.040  52.656  0.00  0.00    +0.000 C 
ATOM     15  O   UNL     1      66.822  80.693  52.241  0.00  0.00    +0.000 OA
ATOM     16  N   UNL     1      67.294  81.469  53.343  0.00  0.00    +0.000 N 
ATOM     17  C   UNL     1      66.520  81.553  53.617  0.00  0.00    +0.000 C 
ATOM     18  O   UNL     1      67.918  81.816  53.758  0.00  0.00    +0.000 OA
ATOM     19  C   UNL     1      69.820  80.758  51.775  0.00  0.00    +0.000 A 
ATOM     20  C   UNL     1      70.471  80.541  51.319  0.00  0.00    +0.000 A 
ATOM     21  C   UNL     1      71.258  80.737  51.472  0.00  0.00    +0.000 A 
ATOM     22  C   UNL     1      71.448  81.192  52.134  0.00  0.00    +0.000 A 
ATOM     23  C   UNL     1      72.235  81.388  52.287  0.00  0.00    +0.000 A 
ATOM     24  C   UNL     1      72.830  81.130  51.778  0.00  0.00    +0.000 A 
ATOM     25 CL   UNL     1      73.617  81.327  51.931  0.00  0.00    +0.000 Cl
ATOM     26  C   UNL     1      72.640  80.676  51.117  0.00  0.00    +0.000 A 
ATOM     27  C   UNL     1      71.854  80.479  50.963  0.00  0.00    +0.000 A 
ENDROOT
TORSDOF 0
ENDMDL
