MODEL 1
REMARK VINA RESULT:   -11.776      0.000      0.000
REMARK INTER + INTRA:         -11.776
REMARK INTER:                 -11.776
REMARK INTRA:                   0.000
REMARK UNBOUND:                 0.000
ROOT
REMARK  Name = teprenone
REMARK                            x       y       z     vdW  Elec       q    Type
REMARK                         _______ _______ _______ _____ _____    ______ ____
ATOM      1  C   UNL     1      59.436  66.868  73.222  0.00  0.00    +0.000 C 
ATOM      2  C   UNL     1      59.868  66.665  72.551  0.00  0.00    +0.000 C 
ATOM      3  C   UNL     1      60.580  67.049  72.385  0.00  0.00    +0.000 C 
ATOM      4  C   UNL     1      59.590  66.078  72.043  0.00  0.00    +0.000 C 
ATOM      5  C   UNL     1      60.023  65.875  71.370  0.00  0.00    +0.000 C 
ATOM      6  C   UNL     1      59.744  65.287  70.863  0.00  0.00    +0.000 C 
ATOM      7  C   UNL     1      60.176  65.083  70.190  0.00  0.00    +0.000 C 
ATOM      8  C   UNL     1      60.888  65.468  70.025  0.00  0.00    +0.000 C 
ATOM      9  C   UNL     1      59.897  64.496  69.683  0.00  0.00    +0.000 C 
ATOM     10  C   UNL     1      60.330  64.292  69.010  0.00  0.00    +0.000 C 
ATOM     11  C   UNL     1      60.052  63.705  68.502  0.00  0.00    +0.000 C 
ATOM     12  C   UNL     1      60.484  63.502  67.830  0.00  0.00    +0.000 C 
ATOM     13  C   UNL     1      61.194  63.886  67.665  0.00  0.00    +0.000 C 
ATOM     14  C   UNL     1      60.205  62.914  67.322  0.00  0.00    +0.000 C 
ATOM     15  C   UNL     1      60.637  62.710  66.650  0.00  0.00    +0.000 C 
ATOM     16  C   UNL     1      60.359  62.123  66.143  0.00  0.00    +0.000 C 
ATOM     17  C   UNL     1      60.792  61.920  65.470  0.00  0.00    +0.000 C 
ATOM     18  C   UNL     1      61.503  62.305  65.305  0.00  0.00    +0.000 C 
ATOM     19  C   UNL     1      60.513  61.332  64.962  0.00  0.00    +0.000 C 
ATOM     20  C   UNL     1      60.946  61.129  64.290  0.00  0.00    +0.000 C 
ATOM     21  C   UNL     1      61.657  61.513  64.125  0.00  0.00    +0.000 C 
ATOM     22  C   UNL     1      62.089  61.310  63.453  0.00  0.00    +0.000 C 
ATOM     23  C   UNL     1      62.800  61.694  63.287  0.00  0.00    +0.000 C 
ATOM     24  O   UNL     1      61.810  60.722  62.945  0.00  0.00    +0.000 OA
ENDROOT
TORSDOF 0
ENDMDL
MODEL 2
REMARK VINA RESULT:   -11.098      1.259      1.654
REMARK INTER + INTRA:         -11.098
REMARK INTER:                 -11.098
REMARK INTRA:                   0.000
REMARK UNBOUND:                 0.000
ROOT
REMARK  Name = teprenone
REMARK                            x       y       z     vdW  Elec       q    Type
REMARK                         _______ _______ _______ _____ _____    ______ ____
ATOM      1  C   UNL     1      62.398  67.794  73.222  0.00  0.00    +0.000 C 
ATOM      2  C   UNL     1      62.597  67.433  72.509  0.00  0.00    +0.000 C 
ATOM      3  C   UNL     1      63.328  67.585  72.158  0.00  0.00    +0.000 C 
ATOM      4  C   UNL     1      62.065  66.918  72.145  0.00  0.00    +0.000 C 
ATOM      5  C   UNL     1      62.264  66.556  71.430  0.00  0.00    +0.000 C 
ATOM      6  C   UNL     1      61.732  66.042  71.066  0.00  0.00    +0.000 C 
ATOM      7  C   UNL     1      61.931  65.680  70.352  0.00  0.00    +0.000 C 
ATOM      8  C   UNL     1      62.663  65.833  70.002  0.00  0.00    +0.000 C 
ATOM      9  C   UNL     1      61.398  65.165  69.988  0.00  0.00    +0.000 C 
ATOM     10  C   UNL     1      61.598  64.803  69.273  0.00  0.00    +0.000 C 
ATOM     11  C   UNL     1      61.065  64.289  68.909  0.00  0.00    +0.000 C 
ATOM     12  C   UNL     1      61.265  63.927  68.195  0.00  0.00    +0.000 C 
ATOM     13  C   UNL     1      61.995  64.080  67.845  0.00  0.00    +0.000 C 
ATOM     14  C   UNL     1      60.732  63.413  67.831  0.00  0.00    +0.000 C 
ATOM     15  C   UNL     1      60.931  63.051  67.117  0.00  0.00    +0.000 C 
ATOM     16  C   UNL     1      60.399  62.537  66.753  0.00  0.00    +0.000 C 
ATOM     17  C   UNL     1      60.598  62.175  66.038  0.00  0.00    +0.000 C 
ATOM     18  C   UNL     1      61.331  62.327  65.688  0.00  0.00    +0.000 C 
ATOM     19  C   UNL     1      60.066  61.660  65.674  0.00  0.00    +0.000 C 
ATOM     20  C   UNL     1      60.266  61.298  64.960  0.00  0.00    +0.000 C 
ATOM     21  C   UNL     1      60.997  61.451  64.610  0.00  0.00    +0.000 C 
ATOM     22  C   UNL     1      61.196  61.089  63.896  0.00  0.00    +0.000 C 
ATOM     23  C   UNL     1      61.927  61.241  63.546  0.00  0.00    +0.000 C 
ATOM     24  O   UNL     1      60.663  60.574  63.532  0.00  0.00    +0.000 OA
ENDROOT
TORSDOF 0
ENDMDL
MODEL 3
REMARK VINA RESULT:   -10.493      3.603      4.493
REMARK INTER + INTRA:         -10.493
REMARK INTER:                 -10.493
REMARK INTRA:                   0.000
REMARK UNBOUND:                 0.000
ROOT
REMARK  Name = teprenone
REMARK                            x       y       z     vdW  Elec       q    Type
REMARK                         _______ _______ _______ _____ _____    ______ ____
ATOM      1  C   UNL     1      67.270  67.243  72.785  0.00  0.00    +0.000 C 
ATOM      2  C   UNL     1      66.893  67.000  72.094  0.00  0.00    +0.000 C 
ATOM      3  C   UNL     1      67.191  67.226  71.358  0.00  0.00    +0.000 C 
ATOM      4  C   UNL     1      66.215  66.531  72.136  0.00  0.00    +0.000 C 
ATOM      5  C   UNL     1      65.838  66.288  71.444  0.00  0.00    +0.000 C 
ATOM      6  C   UNL     1      65.161  65.819  71.487  0.00  0.00    +0.000 C 
ATOM      7  C   UNL     1      64.782  65.576  70.795  0.00  0.00    +0.000 C 
ATOM      8  C   UNL     1      65.082  65.802  70.060  0.00  0.00    +0.000 C 
ATOM      9  C   UNL     1      64.105  65.106  70.838  0.00  0.00    +0.000 C 
ATOM     10  C   UNL     1      63.727  64.863  70.145  0.00  0.00    +0.000 C 
ATOM     11  C   UNL     1      63.050  64.394  70.188  0.00  0.00    +0.000 C 
ATOM     12  C   UNL     1      62.672  64.151  69.497  0.00  0.00    +0.000 C 
ATOM     13  C   UNL     1      62.971  64.377  68.762  0.00  0.00    +0.000 C 
ATOM     14  C   UNL     1      61.995  63.682  69.539  0.00  0.00    +0.000 C 
ATOM     15  C   UNL     1      61.617  63.439  68.848  0.00  0.00    +0.000 C 
ATOM     16  C   UNL     1      60.940  62.970  68.891  0.00  0.00    +0.000 C 
ATOM     17  C   UNL     1      60.562  62.727  68.198  0.00  0.00    +0.000 C 
ATOM     18  C   UNL     1      60.862  62.953  67.463  0.00  0.00    +0.000 C 
ATOM     19  C   UNL     1      59.885  62.257  68.241  0.00  0.00    +0.000 C 
ATOM     20  C   UNL     1      59.507  62.015  67.548  0.00  0.00    +0.000 C 
ATOM     21  C   UNL     1      59.806  62.241  66.814  0.00  0.00    +0.000 C 
ATOM     22  C   UNL     1      59.429  61.998  66.123  0.00  0.00    +0.000 C 
ATOM     23  C   UNL     1      59.728  62.224  65.387  0.00  0.00    +0.000 C 
ATOM     24  O   UNL     1      58.751  61.528  66.165  0.00  0.00    +0.000 OA
ENDROOT
TORSDOF 0
ENDMDL
MODEL 4
REMARK VINA RESULT:    -9.592     14.212     14.504
REMARK INTER + INTRA:          -9.592
REMARK INTER:                  -9.592
REMARK INTRA:                   0.000
REMARK UNBOUND:                 0.000
ROOT
REMARK  Name = teprenone
REMARK                            x       y       z     vdW  Elec       q    Type
REMARK                         _______ _______ _______ _____ _____    ______ ____
ATOM      1  C   UNL     1      61.901  70.264  54.849  0.00  0.00    +0.000 C 
ATOM      2  C   UNL     1      61.666  69.515  54.597  0.00  0.00    +0.000 C 
ATOM      3  C   UNL     1      60.927  69.409  54.245  0.00  0.00    +0.000 C 
ATOM      4  C   UNL     1      62.171  68.869  54.697  0.00  0.00    +0.000 C 
ATOM      5  C   UNL     1      61.936  68.120  54.444  0.00  0.00    +0.000 C 
ATOM      6  C   UNL     1      62.440  67.475  54.544  0.00  0.00    +0.000 C 
ATOM      7  C   UNL     1      62.206  66.725  54.292  0.00  0.00    +0.000 C 
ATOM      8  C   UNL     1      61.467  66.620  53.940  0.00  0.00    +0.000 C 
ATOM      9  C   UNL     1      62.711  66.080  54.392  0.00  0.00    +0.000 C 
ATOM     10  C   UNL     1      62.476  65.329  54.140  0.00  0.00    +0.000 C 
ATOM     11  C   UNL     1      62.981  64.684  54.239  0.00  0.00    +0.000 C 
ATOM     12  C   UNL     1      62.746  63.935  53.987  0.00  0.00    +0.000 C 
ATOM     13  C   UNL     1      62.008  63.830  53.636  0.00  0.00    +0.000 C 
ATOM     14  C   UNL     1      63.251  63.290  54.087  0.00  0.00    +0.000 C 
ATOM     15  C   UNL     1      63.017  62.540  53.835  0.00  0.00    +0.000 C 
ATOM     16  C   UNL     1      63.520  61.896  53.935  0.00  0.00    +0.000 C 
ATOM     17  C   UNL     1      63.286  61.145  53.682  0.00  0.00    +0.000 C 
ATOM     18  C   UNL     1      62.547  61.041  53.330  0.00  0.00    +0.000 C 
ATOM     19  C   UNL     1      63.790  60.500  53.782  0.00  0.00    +0.000 C 
ATOM     20  C   UNL     1      63.555  59.750  53.530  0.00  0.00    +0.000 C 
ATOM     21  C   UNL     1      62.817  59.646  53.178  0.00  0.00    +0.000 C 
ATOM     22  C   UNL     1      62.583  58.897  52.926  0.00  0.00    +0.000 C 
ATOM     23  C   UNL     1      61.844  58.791  52.574  0.00  0.00    +0.000 C 
ATOM     24  O   UNL     1      63.088  58.251  53.026  0.00  0.00    +0.000 OA
ENDROOT
TORSDOF 0
ENDMDL
MODEL 5
REMARK VINA RESULT:    -9.561     14.234     15.609
REMARK INTER + INTRA:          -9.561
REMARK INTER:                  -9.561
REMARK INTRA:                   0.000
REMARK UNBOUND:                 0.000
ROOT
REMARK  Name = teprenone
REMARK                            x       y       z     vdW  Elec       q    Type
REMARK                         _______ _______ _______ _____ _____    ______ ____
ATOM      1  C   UNL     1      63.765  59.241  53.390  0.00  0.00    +0.000 C 
ATOM      2  C   UNL     1      63.283  59.907  53.330  0.00  0.00    +0.000 C 
ATOM      3  C   UNL     1      62.533  59.846  52.992  0.00  0.00    +0.000 C 
ATOM      4  C   UNL     1      63.551  60.636  53.609  0.00  0.00    +0.000 C 
ATOM      5  C   UNL     1      63.068  61.303  53.549  0.00  0.00    +0.000 C 
ATOM      6  C   UNL     1      63.336  62.032  53.827  0.00  0.00    +0.000 C 
ATOM      7  C   UNL     1      62.854  62.699  53.768  0.00  0.00    +0.000 C 
ATOM      8  C   UNL     1      62.104  62.636  53.430  0.00  0.00    +0.000 C 
ATOM      9  C   UNL     1      63.122  63.427  54.047  0.00  0.00    +0.000 C 
ATOM     10  C   UNL     1      62.640  64.095  53.987  0.00  0.00    +0.000 C 
ATOM     11  C   UNL     1      62.907  64.824  54.266  0.00  0.00    +0.000 C 
ATOM     12  C   UNL     1      62.425  65.490  54.206  0.00  0.00    +0.000 C 
ATOM     13  C   UNL     1      61.676  65.428  53.868  0.00  0.00    +0.000 C 
ATOM     14  C   UNL     1      62.693  66.219  54.485  0.00  0.00    +0.000 C 
ATOM     15  C   UNL     1      62.211  66.886  54.425  0.00  0.00    +0.000 C 
ATOM     16  C   UNL     1      62.479  67.614  54.704  0.00  0.00    +0.000 C 
ATOM     17  C   UNL     1      61.996  68.281  54.644  0.00  0.00    +0.000 C 
ATOM     18  C   UNL     1      61.246  68.219  54.306  0.00  0.00    +0.000 C 
ATOM     19  C   UNL     1      62.264  69.010  54.923  0.00  0.00    +0.000 C 
ATOM     20  C   UNL     1      61.781  69.677  54.863  0.00  0.00    +0.000 C 
ATOM     21  C   UNL     1      61.032  69.615  54.525  0.00  0.00    +0.000 C 
ATOM     22  C   UNL     1      60.550  70.281  54.465  0.00  0.00    +0.000 C 
ATOM     23  C   UNL     1      59.800  70.219  54.127  0.00  0.00    +0.000 C 
ATOM     24  O   UNL     1      60.818  71.011  54.744  0.00  0.00    +0.000 OA
ENDROOT
TORSDOF 0
ENDMDL
MODEL 6
REMARK VINA RESULT:    -9.384      6.245      8.282
REMARK INTER + INTRA:          -9.384
REMARK INTER:                  -9.384
REMARK INTRA:                   0.000
REMARK UNBOUND:                 0.000
ROOT
REMARK  Name = teprenone
REMARK                            x       y       z     vdW  Elec       q    Type
REMARK                         _______ _______ _______ _____ _____    ______ ____
ATOM      1  C   UNL     1      69.525  68.025  69.597  0.00  0.00    +0.000 C 
ATOM      2  C   UNL     1      68.703  68.087  69.601  0.00  0.00    +0.000 C 
ATOM      3  C   UNL     1      68.326  68.617  69.093  0.00  0.00    +0.000 C 
ATOM      4  C   UNL     1      68.257  67.618  70.113  0.00  0.00    +0.000 C 
ATOM      5  C   UNL     1      67.434  67.680  70.117  0.00  0.00    +0.000 C 
ATOM      6  C   UNL     1      66.988  67.212  70.628  0.00  0.00    +0.000 C 
ATOM      7  C   UNL     1      66.166  67.273  70.633  0.00  0.00    +0.000 C 
ATOM      8  C   UNL     1      65.789  67.803  70.125  0.00  0.00    +0.000 C 
ATOM      9  C   UNL     1      65.720  66.804  71.145  0.00  0.00    +0.000 C 
ATOM     10  C   UNL     1      64.896  66.865  71.149  0.00  0.00    +0.000 C 
ATOM     11  C   UNL     1      64.450  66.397  71.661  0.00  0.00    +0.000 C 
ATOM     12  C   UNL     1      63.628  66.458  71.665  0.00  0.00    +0.000 C 
ATOM     13  C   UNL     1      63.252  66.988  71.158  0.00  0.00    +0.000 C 
ATOM     14  C   UNL     1      63.182  65.990  72.177  0.00  0.00    +0.000 C 
ATOM     15  C   UNL     1      62.360  66.051  72.182  0.00  0.00    +0.000 C 
ATOM     16  C   UNL     1      61.914  65.583  72.693  0.00  0.00    +0.000 C 
ATOM     17  C   UNL     1      61.091  65.644  72.698  0.00  0.00    +0.000 C 
ATOM     18  C   UNL     1      60.714  66.175  72.189  0.00  0.00    +0.000 C 
ATOM     19  C   UNL     1      60.645  65.175  73.209  0.00  0.00    +0.000 C 
ATOM     20  C   UNL     1      59.822  65.237  73.213  0.00  0.00    +0.000 C 
ATOM     21  C   UNL     1      59.445  65.767  72.706  0.00  0.00    +0.000 C 
ATOM     22  C   UNL     1      58.623  65.829  72.710  0.00  0.00    +0.000 C 
ATOM     23  C   UNL     1      58.246  66.359  72.202  0.00  0.00    +0.000 C 
ATOM     24  O   UNL     1      58.177  65.359  73.222  0.00  0.00    +0.000 OA
ENDROOT
TORSDOF 0
ENDMDL
