MODEL 1
REMARK VINA RESULT:   -12.513      0.000      0.000
REMARK INTER + INTRA:         -12.513
REMARK INTER:                 -12.513
REMARK INTRA:                   0.000
REMARK UNBOUND:                 0.000
ROOT
REMARK  Name = terodiline
REMARK                            x       y       z     vdW  Elec       q    Type
REMARK                         _______ _______ _______ _____ _____    ______ ____
ATOM      1  C   UNL     1      60.620  62.901  67.516  0.00  0.00    +0.000 C 
ATOM      2  C   UNL     1      61.422  63.029  67.367  0.00  0.00    +0.000 C 
ATOM      3  C   UNL     1      61.755  62.777  66.655  0.00  0.00    +0.000 C 
ATOM      4  C   UNL     1      61.285  62.397  66.093  0.00  0.00    +0.000 C 
ATOM      5  C   UNL     1      61.619  62.145  65.380  0.00  0.00    +0.000 A 
ATOM      6  C   UNL     1      62.420  62.274  65.232  0.00  0.00    +0.000 A 
ATOM      7  C   UNL     1      62.753  62.022  64.520  0.00  0.00    +0.000 A 
ATOM      8  C   UNL     1      62.284  61.642  63.956  0.00  0.00    +0.000 A 
ATOM      9  C   UNL     1      61.483  61.515  64.106  0.00  0.00    +0.000 A 
ATOM     10  C   UNL     1      61.150  61.766  64.818  0.00  0.00    +0.000 A 
ATOM     11  C   UNL     1      60.485  62.270  66.241  0.00  0.00    +0.000 A 
ATOM     12  C   UNL     1      60.016  61.890  65.679  0.00  0.00    +0.000 A 
ATOM     13  C   UNL     1      59.215  61.762  65.827  0.00  0.00    +0.000 A 
ATOM     14  C   UNL     1      58.882  62.014  66.538  0.00  0.00    +0.000 A 
ATOM     15  C   UNL     1      59.351  62.394  67.102  0.00  0.00    +0.000 A 
ATOM     16  C   UNL     1      60.152  62.521  66.953  0.00  0.00    +0.000 A 
ATOM     17  N   UNL     1      61.891  63.409  67.931  0.00  0.00    +0.000 NA
ATOM     18  C   UNL     1      61.559  63.660  68.642  0.00  0.00    +0.000 C 
ATOM     19  C   UNL     1      61.225  63.912  69.354  0.00  0.00    +0.000 C 
ATOM     20  C   UNL     1      62.292  63.953  68.881  0.00  0.00    +0.000 C 
ATOM     21  C   UNL     1      60.825  63.367  68.402  0.00  0.00    +0.000 C 
ENDROOT
TORSDOF 0
ENDMDL
MODEL 2
REMARK VINA RESULT:   -11.414      2.689      5.989
REMARK INTER + INTRA:         -11.414
REMARK INTER:                 -11.414
REMARK INTRA:                   0.000
REMARK UNBOUND:                 0.000
ROOT
REMARK  Name = terodiline
REMARK                            x       y       z     vdW  Elec       q    Type
REMARK                         _______ _______ _______ _____ _____    ______ ____
ATOM      1  C   UNL     1      60.919  62.556  70.388  0.00  0.00    +0.000 C 
ATOM      2  C   UNL     1      60.472  63.173  70.070  0.00  0.00    +0.000 C 
ATOM      3  C   UNL     1      60.238  63.802  70.549  0.00  0.00    +0.000 C 
ATOM      4  C   UNL     1      60.450  63.814  71.347  0.00  0.00    +0.000 C 
ATOM      5  C   UNL     1      60.215  64.444  71.827  0.00  0.00    +0.000 A 
ATOM      6  C   UNL     1      59.768  65.060  71.508  0.00  0.00    +0.000 A 
ATOM      7  C   UNL     1      59.533  65.689  71.988  0.00  0.00    +0.000 A 
ATOM      8  C   UNL     1      59.745  65.702  72.786  0.00  0.00    +0.000 A 
ATOM      9  C   UNL     1      60.192  65.085  73.103  0.00  0.00    +0.000 A 
ATOM     10  C   UNL     1      60.426  64.456  72.623  0.00  0.00    +0.000 A 
ATOM     11  C   UNL     1      60.896  63.198  71.664  0.00  0.00    +0.000 A 
ATOM     12  C   UNL     1      61.108  63.210  72.461  0.00  0.00    +0.000 A 
ATOM     13  C   UNL     1      61.554  62.594  72.779  0.00  0.00    +0.000 A 
ATOM     14  C   UNL     1      61.789  61.965  72.300  0.00  0.00    +0.000 A 
ATOM     15  C   UNL     1      61.577  61.952  71.502  0.00  0.00    +0.000 A 
ATOM     16  C   UNL     1      61.131  62.569  71.185  0.00  0.00    +0.000 A 
ATOM     17  N   UNL     1      60.261  63.161  69.272  0.00  0.00    +0.000 NA
ATOM     18  C   UNL     1      60.495  62.533  68.793  0.00  0.00    +0.000 C 
ATOM     19  C   UNL     1      60.730  61.903  68.313  0.00  0.00    +0.000 C 
ATOM     20  C   UNL     1      60.115  62.882  68.149  0.00  0.00    +0.000 C 
ATOM     21  C   UNL     1      60.876  62.183  69.437  0.00  0.00    +0.000 C 
ENDROOT
TORSDOF 0
ENDMDL
MODEL 3
REMARK VINA RESULT:   -11.387      0.784      3.367
REMARK INTER + INTRA:         -11.387
REMARK INTER:                 -11.387
REMARK INTRA:                   0.000
REMARK UNBOUND:                 0.000
ROOT
REMARK  Name = terodiline
REMARK                            x       y       z     vdW  Elec       q    Type
REMARK                         _______ _______ _______ _____ _____    ______ ____
ATOM      1  C   UNL     1      60.906  62.030  65.456  0.00  0.00    +0.000 C 
ATOM      2  C   UNL     1      61.627  62.342  65.712  0.00  0.00    +0.000 C 
ATOM      3  C   UNL     1      61.683  62.699  66.453  0.00  0.00    +0.000 C 
ATOM      4  C   UNL     1      61.018  62.745  66.939  0.00  0.00    +0.000 C 
ATOM      5  C   UNL     1      61.074  63.103  67.682  0.00  0.00    +0.000 A 
ATOM      6  C   UNL     1      61.795  63.413  67.936  0.00  0.00    +0.000 A 
ATOM      7  C   UNL     1      61.851  63.771  68.678  0.00  0.00    +0.000 A 
ATOM      8  C   UNL     1      61.186  63.817  69.165  0.00  0.00    +0.000 A 
ATOM      9  C   UNL     1      60.466  63.506  68.910  0.00  0.00    +0.000 A 
ATOM     10  C   UNL     1      60.410  63.149  68.168  0.00  0.00    +0.000 A 
ATOM     11  C   UNL     1      60.298  62.434  66.685  0.00  0.00    +0.000 A 
ATOM     12  C   UNL     1      59.634  62.480  67.171  0.00  0.00    +0.000 A 
ATOM     13  C   UNL     1      58.913  62.170  66.917  0.00  0.00    +0.000 A 
ATOM     14  C   UNL     1      58.857  61.812  66.175  0.00  0.00    +0.000 A 
ATOM     15  C   UNL     1      59.522  61.766  65.688  0.00  0.00    +0.000 A 
ATOM     16  C   UNL     1      60.242  62.077  65.943  0.00  0.00    +0.000 A 
ATOM     17  N   UNL     1      62.292  62.295  65.224  0.00  0.00    +0.000 NA
ATOM     18  C   UNL     1      62.236  61.938  64.484  0.00  0.00    +0.000 C 
ATOM     19  C   UNL     1      62.180  61.581  63.741  0.00  0.00    +0.000 C 
ATOM     20  C   UNL     1      63.036  62.091  64.350  0.00  0.00    +0.000 C 
ATOM     21  C   UNL     1      61.436  61.785  64.618  0.00  0.00    +0.000 C 
ENDROOT
TORSDOF 0
ENDMDL
MODEL 4
REMARK VINA RESULT:   -11.256      2.902      4.871
REMARK INTER + INTRA:         -11.256
REMARK INTER:                 -11.256
REMARK INTRA:                   0.000
REMARK UNBOUND:                 0.000
ROOT
REMARK  Name = terodiline
REMARK                            x       y       z     vdW  Elec       q    Type
REMARK                         _______ _______ _______ _____ _____    ______ ____
ATOM      1  C   UNL     1      60.130  64.335  69.466  0.00  0.00    +0.000 C 
ATOM      2  C   UNL     1      60.273  64.663  70.210  0.00  0.00    +0.000 C 
ATOM      3  C   UNL     1      60.580  64.194  70.815  0.00  0.00    +0.000 C 
ATOM      4  C   UNL     1      60.744  63.397  70.676  0.00  0.00    +0.000 C 
ATOM      5  C   UNL     1      61.051  62.928  71.283  0.00  0.00    +0.000 A 
ATOM      6  C   UNL     1      61.194  63.257  72.026  0.00  0.00    +0.000 A 
ATOM      7  C   UNL     1      61.502  62.788  72.631  0.00  0.00    +0.000 A 
ATOM      8  C   UNL     1      61.665  61.990  72.493  0.00  0.00    +0.000 A 
ATOM      9  C   UNL     1      61.522  61.663  71.750  0.00  0.00    +0.000 A 
ATOM     10  C   UNL     1      61.215  62.132  71.144  0.00  0.00    +0.000 A 
ATOM     11  C   UNL     1      60.601  63.070  69.934  0.00  0.00    +0.000 A 
ATOM     12  C   UNL     1      60.764  62.273  69.796  0.00  0.00    +0.000 A 
ATOM     13  C   UNL     1      60.621  61.945  69.052  0.00  0.00    +0.000 A 
ATOM     14  C   UNL     1      60.314  62.414  68.447  0.00  0.00    +0.000 A 
ATOM     15  C   UNL     1      60.150  63.211  68.585  0.00  0.00    +0.000 A 
ATOM     16  C   UNL     1      60.294  63.538  69.328  0.00  0.00    +0.000 A 
ATOM     17  N   UNL     1      60.109  65.460  70.348  0.00  0.00    +0.000 NA
ATOM     18  C   UNL     1      59.802  65.929  69.743  0.00  0.00    +0.000 C 
ATOM     19  C   UNL     1      59.495  66.398  69.137  0.00  0.00    +0.000 C 
ATOM     20  C   UNL     1      59.791  66.578  70.252  0.00  0.00    +0.000 C 
ATOM     21  C   UNL     1      59.814  65.279  69.233  0.00  0.00    +0.000 C 
ENDROOT
TORSDOF 0
ENDMDL
MODEL 5
REMARK VINA RESULT:   -11.215      2.509      5.455
REMARK INTER + INTRA:         -11.215
REMARK INTER:                 -11.215
REMARK INTRA:                   0.000
REMARK UNBOUND:                 0.000
ROOT
REMARK  Name = terodiline
REMARK                            x       y       z     vdW  Elec       q    Type
REMARK                         _______ _______ _______ _____ _____    ______ ____
ATOM      1  C   UNL     1      60.337  63.432  69.776  0.00  0.00    +0.000 C 
ATOM      2  C   UNL     1      60.689  62.687  69.719  0.00  0.00    +0.000 C 
ATOM      3  C   UNL     1      61.026  62.338  70.386  0.00  0.00    +0.000 C 
ATOM      4  C   UNL     1      61.012  62.734  71.110  0.00  0.00    +0.000 C 
ATOM      5  C   UNL     1      61.349  62.385  71.778  0.00  0.00    +0.000 A 
ATOM      6  C   UNL     1      61.701  61.641  71.721  0.00  0.00    +0.000 A 
ATOM      7  C   UNL     1      62.038  61.292  72.388  0.00  0.00    +0.000 A 
ATOM      8  C   UNL     1      62.023  61.687  73.113  0.00  0.00    +0.000 A 
ATOM      9  C   UNL     1      61.672  62.431  73.169  0.00  0.00    +0.000 A 
ATOM     10  C   UNL     1      61.334  62.780  72.502  0.00  0.00    +0.000 A 
ATOM     11  C   UNL     1      60.660  63.478  71.167  0.00  0.00    +0.000 A 
ATOM     12  C   UNL     1      60.645  63.873  71.890  0.00  0.00    +0.000 A 
ATOM     13  C   UNL     1      60.294  64.617  71.948  0.00  0.00    +0.000 A 
ATOM     14  C   UNL     1      59.957  64.966  71.280  0.00  0.00    +0.000 A 
ATOM     15  C   UNL     1      59.971  64.570  70.556  0.00  0.00    +0.000 A 
ATOM     16  C   UNL     1      60.323  63.826  70.500  0.00  0.00    +0.000 A 
ATOM     17  N   UNL     1      60.704  62.291  68.995  0.00  0.00    +0.000 NA
ATOM     18  C   UNL     1      60.367  62.640  68.328  0.00  0.00    +0.000 C 
ATOM     19  C   UNL     1      60.030  62.989  67.660  0.00  0.00    +0.000 C 
ATOM     20  C   UNL     1      60.579  61.982  67.877  0.00  0.00    +0.000 C 
ATOM     21  C   UNL     1      60.155  63.298  68.779  0.00  0.00    +0.000 C 
ENDROOT
TORSDOF 0
ENDMDL
MODEL 6
REMARK VINA RESULT:   -11.193      2.873      5.036
REMARK INTER + INTRA:         -11.193
REMARK INTER:                 -11.193
REMARK INTRA:                   0.000
REMARK UNBOUND:                 0.000
ROOT
REMARK  Name = terodiline
REMARK                            x       y       z     vdW  Elec       q    Type
REMARK                         _______ _______ _______ _____ _____    ______ ____
ATOM      1  C   UNL     1      60.502  63.936  72.149  0.00  0.00    +0.000 C 
ATOM      2  C   UNL     1      60.127  64.346  71.538  0.00  0.00    +0.000 C 
ATOM      3  C   UNL     1      60.127  64.037  70.773  0.00  0.00    +0.000 C 
ATOM      4  C   UNL     1      60.502  63.318  70.619  0.00  0.00    +0.000 C 
ATOM      5  C   UNL     1      60.502  63.009  69.853  0.00  0.00    +0.000 A 
ATOM      6  C   UNL     1      60.127  63.419  69.243  0.00  0.00    +0.000 A 
ATOM      7  C   UNL     1      60.127  63.110  68.478  0.00  0.00    +0.000 A 
ATOM      8  C   UNL     1      60.502  62.391  68.323  0.00  0.00    +0.000 A 
ATOM      9  C   UNL     1      60.877  61.982  68.934  0.00  0.00    +0.000 A 
ATOM     10  C   UNL     1      60.877  62.291  69.699  0.00  0.00    +0.000 A 
ATOM     11  C   UNL     1      60.877  62.909  71.228  0.00  0.00    +0.000 A 
ATOM     12  C   UNL     1      61.252  62.191  71.074  0.00  0.00    +0.000 A 
ATOM     13  C   UNL     1      61.627  61.782  71.684  0.00  0.00    +0.000 A 
ATOM     14  C   UNL     1      61.627  62.091  72.449  0.00  0.00    +0.000 A 
ATOM     15  C   UNL     1      61.252  62.810  72.604  0.00  0.00    +0.000 A 
ATOM     16  C   UNL     1      60.877  63.218  71.993  0.00  0.00    +0.000 A 
ATOM     17  N   UNL     1      59.751  65.065  71.693  0.00  0.00    +0.000 NA
ATOM     18  C   UNL     1      59.751  65.374  72.456  0.00  0.00    +0.000 C 
ATOM     19  C   UNL     1      59.751  65.683  73.222  0.00  0.00    +0.000 C 
ATOM     20  C   UNL     1      59.318  66.025  72.193  0.00  0.00    +0.000 C 
ATOM     21  C   UNL     1      60.185  64.722  72.720  0.00  0.00    +0.000 C 
ENDROOT
TORSDOF 0
ENDMDL
MODEL 7
REMARK VINA RESULT:   -11.144      1.768      3.373
REMARK INTER + INTRA:         -11.144
REMARK INTER:                 -11.144
REMARK INTRA:                   0.000
REMARK UNBOUND:                 0.000
ROOT
REMARK  Name = terodiline
REMARK                            x       y       z     vdW  Elec       q    Type
REMARK                         _______ _______ _______ _____ _____    ______ ____
ATOM      1  C   UNL     1      61.970  63.493  70.316  0.00  0.00    +0.000 C 
ATOM      2  C   UNL     1      62.132  63.883  69.606  0.00  0.00    +0.000 C 
ATOM      3  C   UNL     1      61.747  63.656  68.913  0.00  0.00    +0.000 C 
ATOM      4  C   UNL     1      61.199  63.038  68.929  0.00  0.00    +0.000 C 
ATOM      5  C   UNL     1      60.814  62.811  68.235  0.00  0.00    +0.000 A 
ATOM      6  C   UNL     1      60.977  63.201  67.526  0.00  0.00    +0.000 A 
ATOM      7  C   UNL     1      60.592  62.974  66.833  0.00  0.00    +0.000 A 
ATOM      8  C   UNL     1      60.044  62.356  66.848  0.00  0.00    +0.000 A 
ATOM      9  C   UNL     1      59.882  61.967  67.557  0.00  0.00    +0.000 A 
ATOM     10  C   UNL     1      60.267  62.194  68.250  0.00  0.00    +0.000 A 
ATOM     11  C   UNL     1      61.037  62.649  69.637  0.00  0.00    +0.000 A 
ATOM     12  C   UNL     1      60.490  62.032  69.653  0.00  0.00    +0.000 A 
ATOM     13  C   UNL     1      60.327  61.642  70.361  0.00  0.00    +0.000 A 
ATOM     14  C   UNL     1      60.713  61.869  71.055  0.00  0.00    +0.000 A 
ATOM     15  C   UNL     1      61.260  62.487  71.039  0.00  0.00    +0.000 A 
ATOM     16  C   UNL     1      61.422  62.876  70.330  0.00  0.00    +0.000 A 
ATOM     17  N   UNL     1      62.680  64.501  69.591  0.00  0.00    +0.000 NA
ATOM     18  C   UNL     1      63.064  64.728  70.283  0.00  0.00    +0.000 C 
ATOM     19  C   UNL     1      63.450  64.955  70.978  0.00  0.00    +0.000 C 
ATOM     20  C   UNL     1      63.474  65.309  69.865  0.00  0.00    +0.000 C 
ATOM     21  C   UNL     1      62.654  64.146  70.702  0.00  0.00    +0.000 C 
ENDROOT
TORSDOF 0
ENDMDL
MODEL 8
REMARK VINA RESULT:   -11.140      2.900      4.915
REMARK INTER + INTRA:         -11.140
REMARK INTER:                 -11.140
REMARK INTRA:                   0.000
REMARK UNBOUND:                 0.000
ROOT
REMARK  Name = terodiline
REMARK                            x       y       z     vdW  Elec       q    Type
REMARK                         _______ _______ _______ _____ _____    ______ ____
ATOM      1  C   UNL     1      62.335  64.507  71.465  0.00  0.00    +0.000 C 
ATOM      2  C   UNL     1      62.358  64.642  70.651  0.00  0.00    +0.000 C 
ATOM      3  C   UNL     1      61.975  64.124  70.135  0.00  0.00    +0.000 C 
ATOM      4  C   UNL     1      61.569  63.471  70.434  0.00  0.00    +0.000 C 
ATOM      5  C   UNL     1      61.185  62.952  69.918  0.00  0.00    +0.000 A 
ATOM      6  C   UNL     1      61.209  63.088  69.104  0.00  0.00    +0.000 A 
ATOM      7  C   UNL     1      60.826  62.570  68.589  0.00  0.00    +0.000 A 
ATOM      8  C   UNL     1      60.419  61.916  68.887  0.00  0.00    +0.000 A 
ATOM      9  C   UNL     1      60.397  61.781  69.700  0.00  0.00    +0.000 A 
ATOM     10  C   UNL     1      60.780  62.299  70.216  0.00  0.00    +0.000 A 
ATOM     11  C   UNL     1      61.545  63.335  71.247  0.00  0.00    +0.000 A 
ATOM     12  C   UNL     1      61.140  62.682  71.545  0.00  0.00    +0.000 A 
ATOM     13  C   UNL     1      61.116  62.546  72.358  0.00  0.00    +0.000 A 
ATOM     14  C   UNL     1      61.499  63.064  72.874  0.00  0.00    +0.000 A 
ATOM     15  C   UNL     1      61.906  63.718  72.576  0.00  0.00    +0.000 A 
ATOM     16  C   UNL     1      61.928  63.853  71.762  0.00  0.00    +0.000 A 
ATOM     17  N   UNL     1      62.764  65.296  70.353  0.00  0.00    +0.000 NA
ATOM     18  C   UNL     1      63.147  65.813  70.867  0.00  0.00    +0.000 C 
ATOM     19  C   UNL     1      63.530  66.332  71.384  0.00  0.00    +0.000 C 
ATOM     20  C   UNL     1      63.394  66.269  70.226  0.00  0.00    +0.000 C 
ATOM     21  C   UNL     1      62.899  65.357  71.510  0.00  0.00    +0.000 C 
ENDROOT
TORSDOF 0
ENDMDL
MODEL 9
REMARK VINA RESULT:   -10.999      2.378      5.361
REMARK INTER + INTRA:         -10.999
REMARK INTER:                 -10.999
REMARK INTRA:                   0.000
REMARK UNBOUND:                 0.000
ROOT
REMARK  Name = terodiline
REMARK                            x       y       z     vdW  Elec       q    Type
REMARK                         _______ _______ _______ _____ _____    ______ ____
ATOM      1  C   UNL     1      61.128  62.877  70.306  0.00  0.00    +0.000 C 
ATOM      2  C   UNL     1      61.436  63.297  69.665  0.00  0.00    +0.000 C 
ATOM      3  C   UNL     1      61.931  63.944  69.795  0.00  0.00    +0.000 C 
ATOM      4  C   UNL     1      62.119  64.171  70.566  0.00  0.00    +0.000 C 
ATOM      5  C   UNL     1      62.614  64.819  70.696  0.00  0.00    +0.000 A 
ATOM      6  C   UNL     1      62.922  65.238  70.055  0.00  0.00    +0.000 A 
ATOM      7  C   UNL     1      63.417  65.885  70.185  0.00  0.00    +0.000 A 
ATOM      8  C   UNL     1      63.605  66.113  70.956  0.00  0.00    +0.000 A 
ATOM      9  C   UNL     1      63.297  65.693  71.596  0.00  0.00    +0.000 A 
ATOM     10  C   UNL     1      62.802  65.046  71.466  0.00  0.00    +0.000 A 
ATOM     11  C   UNL     1      61.812  63.752  71.206  0.00  0.00    +0.000 A 
ATOM     12  C   UNL     1      61.999  63.979  71.976  0.00  0.00    +0.000 A 
ATOM     13  C   UNL     1      61.692  63.560  72.617  0.00  0.00    +0.000 A 
ATOM     14  C   UNL     1      61.197  62.913  72.487  0.00  0.00    +0.000 A 
ATOM     15  C   UNL     1      61.009  62.685  71.716  0.00  0.00    +0.000 A 
ATOM     16  C   UNL     1      61.316  63.105  71.076  0.00  0.00    +0.000 A 
ATOM     17  N   UNL     1      61.248  63.069  68.894  0.00  0.00    +0.000 NA
ATOM     18  C   UNL     1      60.754  62.423  68.764  0.00  0.00    +0.000 C 
ATOM     19  C   UNL     1      60.258  61.775  68.634  0.00  0.00    +0.000 C 
ATOM     20  C   UNL     1      60.823  62.533  67.950  0.00  0.00    +0.000 C 
ATOM     21  C   UNL     1      60.685  62.312  69.580  0.00  0.00    +0.000 C 
ENDROOT
TORSDOF 0
ENDMDL
