MODEL 1
REMARK VINA RESULT:   -15.314      0.000      0.000
REMARK INTER + INTRA:         -15.314
REMARK INTER:                 -15.314
REMARK INTRA:                   0.000
REMARK UNBOUND:                 0.000
ROOT
REMARK  Name = tetragalacturonic acid hydroxymethylester
REMARK                            x       y       z     vdW  Elec       q    Type
REMARK                         _______ _______ _______ _____ _____    ______ ____
ATOM      1  C   UNL     1      61.759  58.771  49.571  0.00  0.00    +0.000 C 
ATOM      2  O   UNL     1      62.195  58.745  50.271  0.00  0.00    +0.000 OA
ATOM      3  C   UNL     1      62.266  59.422  50.738  0.00  0.00    +0.000 C 
ATOM      4  O   UNL     1      61.901  60.124  50.505  0.00  0.00    +0.000 OA
ATOM      5  C   UNL     1      62.702  59.396  51.438  0.00  0.00    +0.000 C 
ATOM      6  O   UNL     1      62.773  60.072  51.905  0.00  0.00    +0.000 OA
ATOM      7  C   UNL     1      63.209  60.047  52.605  0.00  0.00    +0.000 C 
ATOM      8  O   UNL     1      63.280  60.723  53.072  0.00  0.00    +0.000 OA
ATOM      9  C   UNL     1      62.915  61.425  52.839  0.00  0.00    +0.000 C 
ATOM     10  C   UNL     1      62.479  61.451  52.139  0.00  0.00    +0.000 C 
ATOM     11  O   UNL     1      62.408  60.775  51.672  0.00  0.00    +0.000 OA
ATOM     12  C   UNL     1      62.114  62.153  51.906  0.00  0.00    +0.000 C 
ATOM     13  O   UNL     1      61.678  62.179  51.205  0.00  0.00    +0.000 OA
ATOM     14  C   UNL     1      62.185  62.830  52.372  0.00  0.00    +0.000 C 
ATOM     15  O   UNL     1      61.820  63.533  52.140  0.00  0.00    +0.000 OA
ATOM     16  C   UNL     1      61.891  64.209  52.606  0.00  0.00    +0.000 C 
ATOM     17  C   UNL     1      62.327  64.183  53.306  0.00  0.00    +0.000 C 
ATOM     18  O   UNL     1      62.692  63.481  53.540  0.00  0.00    +0.000 OA
ATOM     19  C   UNL     1      62.398  64.859  53.773  0.00  0.00    +0.000 C 
ATOM     20  O   UNL     1      62.833  64.833  54.473  0.00  0.00    +0.000 OA
ATOM     21  C   UNL     1      62.033  65.562  53.540  0.00  0.00    +0.000 C 
ATOM     22  O   UNL     1      62.104  66.238  54.007  0.00  0.00    +0.000 OA
ATOM     23  C   UNL     1      61.739  66.940  53.774  0.00  0.00    +0.000 C 
ATOM     24  C   UNL     1      61.303  66.966  53.074  0.00  0.00    +0.000 C 
ATOM     25  O   UNL     1      61.233  66.289  52.607  0.00  0.00    +0.000 OA
ATOM     26  C   UNL     1      60.939  67.668  52.841  0.00  0.00    +0.000 C 
ATOM     27  O   UNL     1      60.502  67.694  52.140  0.00  0.00    +0.000 OA
ATOM     28  C   UNL     1      61.009  68.345  53.307  0.00  0.00    +0.000 C 
ATOM     29  O   UNL     1      60.645  69.047  53.075  0.00  0.00    +0.000 OA
ATOM     30  O   UNL     1      61.445  68.319  54.007  0.00  0.00    +0.000 OA
ATOM     31  C   UNL     1      61.810  67.616  54.241  0.00  0.00    +0.000 C 
ATOM     32  C   UNL     1      62.246  67.591  54.940  0.00  0.00    +0.000 C 
ATOM     33  O   UNL     1      62.611  66.889  55.174  0.00  0.00    +0.000 OA
ATOM     34  O   UNL     1      62.317  68.268  55.407  0.00  0.00    +0.000 OA
ATOM     35  C   UNL     1      62.752  68.242  56.108  0.00  0.00    +0.000 C 
ATOM     36  O   UNL     1      61.597  65.587  52.840  0.00  0.00    +0.000 OA
ATOM     37  C   UNL     1      61.527  64.910  52.373  0.00  0.00    +0.000 C 
ATOM     38  C   UNL     1      61.090  64.936  51.672  0.00  0.00    +0.000 C 
ATOM     39  O   UNL     1      61.020  64.260  51.206  0.00  0.00    +0.000 OA
ATOM     40  O   UNL     1      60.726  65.639  51.440  0.00  0.00    +0.000 OA
ATOM     41  C   UNL     1      60.290  65.665  50.740  0.00  0.00    +0.000 C 
ATOM     42  O   UNL     1      62.621  62.804  53.072  0.00  0.00    +0.000 OA
ATOM     43  C   UNL     1      62.986  62.101  53.306  0.00  0.00    +0.000 C 
ATOM     44  C   UNL     1      63.421  62.076  54.005  0.00  0.00    +0.000 C 
ATOM     45  O   UNL     1      63.492  62.752  54.472  0.00  0.00    +0.000 OA
ATOM     46  O   UNL     1      63.786  61.374  54.239  0.00  0.00    +0.000 OA
ATOM     47  C   UNL     1      63.715  60.698  53.772  0.00  0.00    +0.000 C 
ATOM     48  C   UNL     1      63.574  59.345  52.839  0.00  0.00    +0.000 C 
ATOM     49  O   UNL     1      64.009  59.319  53.538  0.00  0.00    +0.000 OA
ATOM     50  C   UNL     1      63.502  58.668  52.371  0.00  0.00    +0.000 C 
ATOM     51  O   UNL     1      63.867  57.966  52.605  0.00  0.00    +0.000 OA
ATOM     52  C   UNL     1      63.067  58.694  51.671  0.00  0.00    +0.000 C 
ATOM     53  O   UNL     1      62.996  58.017  51.205  0.00  0.00    +0.000 OA
ENDROOT
TORSDOF 0
ENDMDL
MODEL 2
REMARK VINA RESULT:   -15.257      1.115      7.397
REMARK INTER + INTRA:         -15.257
REMARK INTER:                 -15.257
REMARK INTRA:                   0.000
REMARK UNBOUND:                 0.000
ROOT
REMARK  Name = tetragalacturonic acid hydroxymethylester
REMARK                            x       y       z     vdW  Elec       q    Type
REMARK                         _______ _______ _______ _____ _____    ______ ____
ATOM      1  C   UNL     1      63.116  68.386  57.148  0.00  0.00    +0.000 C 
ATOM      2  O   UNL     1      62.675  68.616  56.490  0.00  0.00    +0.000 OA
ATOM      3  C   UNL     1      62.560  68.089  55.865  0.00  0.00    +0.000 C 
ATOM      4  O   UNL     1      62.885  67.332  55.898  0.00  0.00    +0.000 OA
ATOM      5  C   UNL     1      62.118  68.320  55.206  0.00  0.00    +0.000 C 
ATOM      6  O   UNL     1      62.003  67.794  54.583  0.00  0.00    +0.000 OA
ATOM      7  C   UNL     1      61.562  68.025  53.925  0.00  0.00    +0.000 C 
ATOM      8  O   UNL     1      61.446  67.498  53.300  0.00  0.00    +0.000 OA
ATOM      9  C   UNL     1      61.772  66.741  53.334  0.00  0.00    +0.000 C 
ATOM     10  C   UNL     1      62.213  66.510  53.992  0.00  0.00    +0.000 C 
ATOM     11  O   UNL     1      62.328  67.036  54.615  0.00  0.00    +0.000 OA
ATOM     12  C   UNL     1      62.538  65.753  54.025  0.00  0.00    +0.000 C 
ATOM     13  O   UNL     1      62.980  65.522  54.683  0.00  0.00    +0.000 OA
ATOM     14  C   UNL     1      62.423  65.226  53.400  0.00  0.00    +0.000 C 
ATOM     15  O   UNL     1      62.749  64.468  53.433  0.00  0.00    +0.000 OA
ATOM     16  C   UNL     1      62.633  63.942  52.809  0.00  0.00    +0.000 C 
ATOM     17  C   UNL     1      62.192  64.173  52.151  0.00  0.00    +0.000 C 
ATOM     18  O   UNL     1      61.867  64.930  52.117  0.00  0.00    +0.000 OA
ATOM     19  C   UNL     1      62.077  63.647  51.527  0.00  0.00    +0.000 C 
ATOM     20  O   UNL     1      61.636  63.877  50.870  0.00  0.00    +0.000 OA
ATOM     21  C   UNL     1      62.403  62.889  51.560  0.00  0.00    +0.000 C 
ATOM     22  O   UNL     1      62.287  62.363  50.936  0.00  0.00    +0.000 OA
ATOM     23  C   UNL     1      62.613  61.605  50.969  0.00  0.00    +0.000 C 
ATOM     24  C   UNL     1      63.054  61.374  51.627  0.00  0.00    +0.000 C 
ATOM     25  O   UNL     1      63.169  61.901  52.252  0.00  0.00    +0.000 OA
ATOM     26  C   UNL     1      63.379  60.617  51.660  0.00  0.00    +0.000 C 
ATOM     27  O   UNL     1      63.821  60.386  52.319  0.00  0.00    +0.000 OA
ATOM     28  C   UNL     1      63.264  60.090  51.036  0.00  0.00    +0.000 C 
ATOM     29  O   UNL     1      63.589  59.334  51.069  0.00  0.00    +0.000 OA
ATOM     30  O   UNL     1      62.823  60.321  50.378  0.00  0.00    +0.000 OA
ATOM     31  C   UNL     1      62.497  61.079  50.345  0.00  0.00    +0.000 C 
ATOM     32  C   UNL     1      62.056  61.309  49.687  0.00  0.00    +0.000 C 
ATOM     33  O   UNL     1      61.731  62.066  49.653  0.00  0.00    +0.000 OA
ATOM     34  O   UNL     1      61.941  60.782  49.062  0.00  0.00    +0.000 OA
ATOM     35  C   UNL     1      61.500  61.013  48.404  0.00  0.00    +0.000 C 
ATOM     36  O   UNL     1      62.844  62.658  52.218  0.00  0.00    +0.000 OA
ATOM     37  C   UNL     1      62.959  63.185  52.843  0.00  0.00    +0.000 C 
ATOM     38  C   UNL     1      63.400  62.954  53.501  0.00  0.00    +0.000 C 
ATOM     39  O   UNL     1      63.515  63.481  54.125  0.00  0.00    +0.000 OA
ATOM     40  O   UNL     1      63.726  62.197  53.534  0.00  0.00    +0.000 OA
ATOM     41  C   UNL     1      64.167  61.966  54.192  0.00  0.00    +0.000 C 
ATOM     42  O   UNL     1      61.982  65.457  52.742  0.00  0.00    +0.000 OA
ATOM     43  C   UNL     1      61.656  66.215  52.709  0.00  0.00    +0.000 C 
ATOM     44  C   UNL     1      61.216  66.445  52.052  0.00  0.00    +0.000 C 
ATOM     45  O   UNL     1      61.100  65.918  51.427  0.00  0.00    +0.000 OA
ATOM     46  O   UNL     1      60.890  67.202  52.018  0.00  0.00    +0.000 OA
ATOM     47  C   UNL     1      61.006  67.728  52.642  0.00  0.00    +0.000 C 
ATOM     48  C   UNL     1      61.236  68.782  53.891  0.00  0.00    +0.000 C 
ATOM     49  O   UNL     1      60.796  69.012  53.233  0.00  0.00    +0.000 OA
ATOM     50  C   UNL     1      61.352  69.309  54.516  0.00  0.00    +0.000 C 
ATOM     51  O   UNL     1      61.026  70.066  54.482  0.00  0.00    +0.000 OA
ATOM     52  C   UNL     1      61.793  69.078  55.174  0.00  0.00    +0.000 C 
ATOM     53  O   UNL     1      61.908  69.604  55.798  0.00  0.00    +0.000 OA
ENDROOT
TORSDOF 0
ENDMDL
MODEL 3
REMARK VINA RESULT:   -15.060      1.173      7.184
REMARK INTER + INTRA:         -15.060
REMARK INTER:                 -15.060
REMARK INTRA:                   0.000
REMARK UNBOUND:                 0.000
ROOT
REMARK  Name = tetragalacturonic acid hydroxymethylester
REMARK                            x       y       z     vdW  Elec       q    Type
REMARK                         _______ _______ _______ _____ _____    ______ ____
ATOM      1  C   UNL     1      59.449  70.651  52.342  0.00  0.00    +0.000 C 
ATOM      2  O   UNL     1      59.977  70.525  52.964  0.00  0.00    +0.000 OA
ATOM      3  C   UNL     1      60.285  69.771  53.096  0.00  0.00    +0.000 C 
ATOM      4  O   UNL     1      60.066  69.144  52.608  0.00  0.00    +0.000 OA
ATOM      5  C   UNL     1      60.813  69.645  53.719  0.00  0.00    +0.000 C 
ATOM      6  O   UNL     1      61.121  68.892  53.852  0.00  0.00    +0.000 OA
ATOM      7  C   UNL     1      61.648  68.766  54.473  0.00  0.00    +0.000 C 
ATOM      8  O   UNL     1      61.957  68.012  54.607  0.00  0.00    +0.000 OA
ATOM      9  C   UNL     1      61.737  67.385  54.117  0.00  0.00    +0.000 C 
ATOM     10  C   UNL     1      61.210  67.511  53.496  0.00  0.00    +0.000 C 
ATOM     11  O   UNL     1      60.902  68.264  53.363  0.00  0.00    +0.000 OA
ATOM     12  C   UNL     1      60.991  66.884  53.007  0.00  0.00    +0.000 C 
ATOM     13  O   UNL     1      60.463  67.010  52.385  0.00  0.00    +0.000 OA
ATOM     14  C   UNL     1      61.299  66.130  53.140  0.00  0.00    +0.000 C 
ATOM     15  O   UNL     1      61.081  65.502  52.651  0.00  0.00    +0.000 OA
ATOM     16  C   UNL     1      61.389  64.749  52.784  0.00  0.00    +0.000 C 
ATOM     17  C   UNL     1      61.916  64.623  53.406  0.00  0.00    +0.000 C 
ATOM     18  O   UNL     1      62.135  65.250  53.895  0.00  0.00    +0.000 OA
ATOM     19  C   UNL     1      62.225  63.869  53.539  0.00  0.00    +0.000 C 
ATOM     20  O   UNL     1      62.751  63.743  54.160  0.00  0.00    +0.000 OA
ATOM     21  C   UNL     1      62.005  63.242  53.050  0.00  0.00    +0.000 C 
ATOM     22  O   UNL     1      62.314  62.488  53.183  0.00  0.00    +0.000 OA
ATOM     23  C   UNL     1      62.095  61.860  52.694  0.00  0.00    +0.000 C 
ATOM     24  C   UNL     1      61.567  61.987  52.072  0.00  0.00    +0.000 C 
ATOM     25  O   UNL     1      61.259  62.741  51.940  0.00  0.00    +0.000 OA
ATOM     26  C   UNL     1      61.348  61.360  51.584  0.00  0.00    +0.000 C 
ATOM     27  O   UNL     1      60.820  61.486  50.961  0.00  0.00    +0.000 OA
ATOM     28  C   UNL     1      61.657  60.606  51.716  0.00  0.00    +0.000 C 
ATOM     29  O   UNL     1      61.438  59.978  51.228  0.00  0.00    +0.000 OA
ATOM     30  O   UNL     1      62.184  60.479  52.338  0.00  0.00    +0.000 OA
ATOM     31  C   UNL     1      62.403  61.107  52.827  0.00  0.00    +0.000 C 
ATOM     32  C   UNL     1      62.930  60.981  53.448  0.00  0.00    +0.000 C 
ATOM     33  O   UNL     1      63.149  61.608  53.937  0.00  0.00    +0.000 OA
ATOM     34  O   UNL     1      63.239  60.227  53.581  0.00  0.00    +0.000 OA
ATOM     35  C   UNL     1      63.766  60.101  54.203  0.00  0.00    +0.000 C 
ATOM     36  O   UNL     1      61.478  63.368  52.428  0.00  0.00    +0.000 OA
ATOM     37  C   UNL     1      61.170  64.122  52.296  0.00  0.00    +0.000 C 
ATOM     38  C   UNL     1      60.642  64.248  51.673  0.00  0.00    +0.000 C 
ATOM     39  O   UNL     1      60.334  65.001  51.540  0.00  0.00    +0.000 OA
ATOM     40  O   UNL     1      60.423  63.620  51.184  0.00  0.00    +0.000 OA
ATOM     41  C   UNL     1      59.896  63.746  50.563  0.00  0.00    +0.000 C 
ATOM     42  O   UNL     1      61.827  66.004  53.762  0.00  0.00    +0.000 OA
ATOM     43  C   UNL     1      62.046  66.632  54.251  0.00  0.00    +0.000 C 
ATOM     44  C   UNL     1      62.573  66.506  54.872  0.00  0.00    +0.000 C 
ATOM     45  O   UNL     1      62.881  65.751  55.005  0.00  0.00    +0.000 OA
ATOM     46  O   UNL     1      62.792  67.133  55.361  0.00  0.00    +0.000 OA
ATOM     47  C   UNL     1      62.484  67.886  55.228  0.00  0.00    +0.000 C 
ATOM     48  C   UNL     1      61.867  69.393  54.962  0.00  0.00    +0.000 C 
ATOM     49  O   UNL     1      62.394  69.267  55.583  0.00  0.00    +0.000 OA
ATOM     50  C   UNL     1      61.559  70.147  54.829  0.00  0.00    +0.000 C 
ATOM     51  O   UNL     1      61.778  70.774  55.318  0.00  0.00    +0.000 OA
ATOM     52  C   UNL     1      61.031  70.273  54.208  0.00  0.00    +0.000 C 
ATOM     53  O   UNL     1      60.723  71.026  54.075  0.00  0.00    +0.000 OA
ENDROOT
TORSDOF 0
ENDMDL
MODEL 4
REMARK VINA RESULT:   -14.938      1.142      3.397
REMARK INTER + INTRA:         -14.938
REMARK INTER:                 -14.938
REMARK INTRA:                   0.000
REMARK UNBOUND:                 0.000
ROOT
REMARK  Name = tetragalacturonic acid hydroxymethylester
REMARK                            x       y       z     vdW  Elec       q    Type
REMARK                         _______ _______ _______ _____ _____    ______ ____
ATOM      1  C   UNL     1      63.871  60.380  54.449  0.00  0.00    +0.000 C 
ATOM      2  O   UNL     1      63.580  60.498  53.686  0.00  0.00    +0.000 OA
ATOM      3  C   UNL     1      63.291  61.239  53.466  0.00  0.00    +0.000 C 
ATOM      4  O   UNL     1      63.291  61.860  54.007  0.00  0.00    +0.000 OA
ATOM      5  C   UNL     1      63.000  61.358  52.702  0.00  0.00    +0.000 C 
ATOM      6  O   UNL     1      62.710  62.097  52.481  0.00  0.00    +0.000 OA
ATOM      7  C   UNL     1      62.420  62.216  51.718  0.00  0.00    +0.000 C 
ATOM      8  O   UNL     1      62.130  62.957  51.497  0.00  0.00    +0.000 OA
ATOM      9  C   UNL     1      62.131  63.578  52.040  0.00  0.00    +0.000 C 
ATOM     10  C   UNL     1      62.421  63.459  52.803  0.00  0.00    +0.000 C 
ATOM     11  O   UNL     1      62.711  62.719  53.023  0.00  0.00    +0.000 OA
ATOM     12  C   UNL     1      62.421  64.080  53.345  0.00  0.00    +0.000 C 
ATOM     13  O   UNL     1      62.712  63.962  54.109  0.00  0.00    +0.000 OA
ATOM     14  C   UNL     1      62.132  64.821  53.125  0.00  0.00    +0.000 C 
ATOM     15  O   UNL     1      62.132  65.443  53.667  0.00  0.00    +0.000 OA
ATOM     16  C   UNL     1      61.842  66.183  53.447  0.00  0.00    +0.000 C 
ATOM     17  C   UNL     1      61.552  66.302  52.683  0.00  0.00    +0.000 C 
ATOM     18  O   UNL     1      61.551  65.680  52.141  0.00  0.00    +0.000 OA
ATOM     19  C   UNL     1      61.262  67.041  52.462  0.00  0.00    +0.000 C 
ATOM     20  O   UNL     1      60.972  67.160  51.700  0.00  0.00    +0.000 OA
ATOM     21  C   UNL     1      61.263  67.664  53.005  0.00  0.00    +0.000 C 
ATOM     22  O   UNL     1      60.973  68.403  52.784  0.00  0.00    +0.000 OA
ATOM     23  C   UNL     1      60.973  69.025  53.327  0.00  0.00    +0.000 C 
ATOM     24  C   UNL     1      61.264  68.907  54.090  0.00  0.00    +0.000 C 
ATOM     25  O   UNL     1      61.554  68.166  54.310  0.00  0.00    +0.000 OA
ATOM     26  C   UNL     1      61.264  69.528  54.632  0.00  0.00    +0.000 C 
ATOM     27  O   UNL     1      61.555  69.409  55.396  0.00  0.00    +0.000 OA
ATOM     28  C   UNL     1      60.974  70.269  54.412  0.00  0.00    +0.000 C 
ATOM     29  O   UNL     1      60.975  70.890  54.954  0.00  0.00    +0.000 OA
ATOM     30  O   UNL     1      60.684  70.387  53.649  0.00  0.00    +0.000 OA
ATOM     31  C   UNL     1      60.683  69.765  53.106  0.00  0.00    +0.000 C 
ATOM     32  C   UNL     1      60.393  69.884  52.344  0.00  0.00    +0.000 C 
ATOM     33  O   UNL     1      60.393  69.263  51.801  0.00  0.00    +0.000 OA
ATOM     34  O   UNL     1      60.103  70.625  52.123  0.00  0.00    +0.000 OA
ATOM     35  C   UNL     1      59.813  70.743  51.360  0.00  0.00    +0.000 C 
ATOM     36  O   UNL     1      61.553  67.545  53.768  0.00  0.00    +0.000 OA
ATOM     37  C   UNL     1      61.843  66.804  53.988  0.00  0.00    +0.000 C 
ATOM     38  C   UNL     1      62.134  66.686  54.752  0.00  0.00    +0.000 C 
ATOM     39  O   UNL     1      62.423  65.946  54.973  0.00  0.00    +0.000 OA
ATOM     40  O   UNL     1      62.134  67.308  55.294  0.00  0.00    +0.000 OA
ATOM     41  C   UNL     1      62.424  67.189  56.057  0.00  0.00    +0.000 C 
ATOM     42  O   UNL     1      61.841  64.940  52.362  0.00  0.00    +0.000 OA
ATOM     43  C   UNL     1      61.841  64.318  51.819  0.00  0.00    +0.000 C 
ATOM     44  C   UNL     1      61.551  64.436  51.057  0.00  0.00    +0.000 C 
ATOM     45  O   UNL     1      61.260  65.177  50.836  0.00  0.00    +0.000 OA
ATOM     46  O   UNL     1      61.550  63.815  50.514  0.00  0.00    +0.000 OA
ATOM     47  C   UNL     1      61.840  63.075  50.735  0.00  0.00    +0.000 C 
ATOM     48  C   UNL     1      62.419  61.595  51.176  0.00  0.00    +0.000 C 
ATOM     49  O   UNL     1      62.129  61.713  50.413  0.00  0.00    +0.000 OA
ATOM     50  C   UNL     1      62.709  60.854  51.397  0.00  0.00    +0.000 C 
ATOM     51  O   UNL     1      62.708  60.233  50.854  0.00  0.00    +0.000 OA
ATOM     52  C   UNL     1      63.000  60.735  52.160  0.00  0.00    +0.000 C 
ATOM     53  O   UNL     1      63.289  59.996  52.380  0.00  0.00    +0.000 OA
ENDROOT
TORSDOF 0
ENDMDL
MODEL 5
REMARK VINA RESULT:   -14.837      1.203      2.063
REMARK INTER + INTRA:         -14.837
REMARK INTER:                 -14.837
REMARK INTRA:                   0.000
REMARK UNBOUND:                 0.000
ROOT
REMARK  Name = tetragalacturonic acid hydroxymethylester
REMARK                            x       y       z     vdW  Elec       q    Type
REMARK                         _______ _______ _______ _____ _____    ______ ____
ATOM      1  C   UNL     1      60.432  61.491  48.834  0.00  0.00    +0.000 C 
ATOM      2  O   UNL     1      60.801  61.204  49.514  0.00  0.00    +0.000 OA
ATOM      3  C   UNL     1      60.986  61.720  50.131  0.00  0.00    +0.000 C 
ATOM      4  O   UNL     1      60.802  62.521  50.069  0.00  0.00    +0.000 OA
ATOM      5  C   UNL     1      61.355  61.433  50.812  0.00  0.00    +0.000 C 
ATOM      6  O   UNL     1      61.540  61.948  51.428  0.00  0.00    +0.000 OA
ATOM      7  C   UNL     1      61.909  61.661  52.108  0.00  0.00    +0.000 C 
ATOM      8  O   UNL     1      62.094  62.176  52.726  0.00  0.00    +0.000 OA
ATOM      9  C   UNL     1      61.910  62.978  52.663  0.00  0.00    +0.000 C 
ATOM     10  C   UNL     1      61.541  63.265  51.983  0.00  0.00    +0.000 C 
ATOM     11  O   UNL     1      61.356  62.750  51.367  0.00  0.00    +0.000 OA
ATOM     12  C   UNL     1      61.357  64.066  51.921  0.00  0.00    +0.000 C 
ATOM     13  O   UNL     1      60.988  64.353  51.240  0.00  0.00    +0.000 OA
ATOM     14  C   UNL     1      61.542  64.581  52.538  0.00  0.00    +0.000 C 
ATOM     15  O   UNL     1      61.358  65.384  52.476  0.00  0.00    +0.000 OA
ATOM     16  C   UNL     1      61.543  65.898  53.093  0.00  0.00    +0.000 C 
ATOM     17  C   UNL     1      61.912  65.612  53.773  0.00  0.00    +0.000 C 
ATOM     18  O   UNL     1      62.096  64.810  53.836  0.00  0.00    +0.000 OA
ATOM     19  C   UNL     1      62.097  66.126  54.390  0.00  0.00    +0.000 C 
ATOM     20  O   UNL     1      62.466  65.840  55.070  0.00  0.00    +0.000 OA
ATOM     21  C   UNL     1      61.913  66.929  54.328  0.00  0.00    +0.000 C 
ATOM     22  O   UNL     1      62.098  67.443  54.945  0.00  0.00    +0.000 OA
ATOM     23  C   UNL     1      61.914  68.245  54.883  0.00  0.00    +0.000 C 
ATOM     24  C   UNL     1      61.545  68.532  54.203  0.00  0.00    +0.000 C 
ATOM     25  O   UNL     1      61.360  68.016  53.585  0.00  0.00    +0.000 OA
ATOM     26  C   UNL     1      61.361  69.333  54.140  0.00  0.00    +0.000 C 
ATOM     27  O   UNL     1      60.992  69.620  53.460  0.00  0.00    +0.000 OA
ATOM     28  C   UNL     1      61.546  69.849  54.757  0.00  0.00    +0.000 C 
ATOM     29  O   UNL     1      61.362  70.650  54.695  0.00  0.00    +0.000 OA
ATOM     30  O   UNL     1      61.915  69.562  55.437  0.00  0.00    +0.000 OA
ATOM     31  C   UNL     1      62.099  68.760  55.500  0.00  0.00    +0.000 C 
ATOM     32  C   UNL     1      62.468  68.473  56.179  0.00  0.00    +0.000 C 
ATOM     33  O   UNL     1      62.652  67.672  56.242  0.00  0.00    +0.000 OA
ATOM     34  O   UNL     1      62.653  68.989  56.797  0.00  0.00    +0.000 OA
ATOM     35  C   UNL     1      63.022  68.702  57.477  0.00  0.00    +0.000 C 
ATOM     36  O   UNL     1      61.544  67.215  53.648  0.00  0.00    +0.000 OA
ATOM     37  C   UNL     1      61.359  66.700  53.031  0.00  0.00    +0.000 C 
ATOM     38  C   UNL     1      60.990  66.987  52.350  0.00  0.00    +0.000 C 
ATOM     39  O   UNL     1      60.805  66.472  51.733  0.00  0.00    +0.000 OA
ATOM     40  O   UNL     1      60.806  67.789  52.288  0.00  0.00    +0.000 OA
ATOM     41  C   UNL     1      60.437  68.076  51.608  0.00  0.00    +0.000 C 
ATOM     42  O   UNL     1      61.911  64.295  53.218  0.00  0.00    +0.000 OA
ATOM     43  C   UNL     1      62.095  63.492  53.281  0.00  0.00    +0.000 C 
ATOM     44  C   UNL     1      62.463  63.206  53.960  0.00  0.00    +0.000 C 
ATOM     45  O   UNL     1      62.649  63.721  54.578  0.00  0.00    +0.000 OA
ATOM     46  O   UNL     1      62.648  62.404  54.023  0.00  0.00    +0.000 OA
ATOM     47  C   UNL     1      62.462  61.890  53.405  0.00  0.00    +0.000 C 
ATOM     48  C   UNL     1      62.093  60.859  52.172  0.00  0.00    +0.000 C 
ATOM     49  O   UNL     1      62.461  60.573  52.851  0.00  0.00    +0.000 OA
ATOM     50  C   UNL     1      61.908  60.344  51.554  0.00  0.00    +0.000 C 
ATOM     51  O   UNL     1      62.092  59.543  51.617  0.00  0.00    +0.000 OA
ATOM     52  C   UNL     1      61.539  60.631  50.874  0.00  0.00    +0.000 C 
ATOM     53  O   UNL     1      61.354  60.116  50.257  0.00  0.00    +0.000 OA
ENDROOT
TORSDOF 0
ENDMDL
MODEL 6
REMARK VINA RESULT:   -14.651     13.623     15.800
REMARK INTER + INTRA:         -14.651
REMARK INTER:                 -14.651
REMARK INTRA:                   0.000
REMARK UNBOUND:                 0.000
ROOT
REMARK  Name = tetragalacturonic acid hydroxymethylester
REMARK                            x       y       z     vdW  Elec       q    Type
REMARK                         _______ _______ _______ _____ _____    ______ ____
ATOM      1  C   UNL     1      63.574  61.875  63.283  0.00  0.00    +0.000 C 
ATOM      2  O   UNL     1      62.799  61.660  63.468  0.00  0.00    +0.000 OA
ATOM      3  C   UNL     1      62.461  61.909  64.178  0.00  0.00    +0.000 C 
ATOM      4  O   UNL     1      62.897  62.372  64.703  0.00  0.00    +0.000 OA
ATOM      5  C   UNL     1      61.686  61.694  64.364  0.00  0.00    +0.000 C 
ATOM      6  O   UNL     1      61.347  61.943  65.073  0.00  0.00    +0.000 OA
ATOM      7  C   UNL     1      60.573  61.728  65.258  0.00  0.00    +0.000 C 
ATOM      8  O   UNL     1      60.234  61.977  65.969  0.00  0.00    +0.000 OA
ATOM      9  C   UNL     1      60.670  62.441  66.493  0.00  0.00    +0.000 C 
ATOM     10  C   UNL     1      61.445  62.655  66.308  0.00  0.00    +0.000 C 
ATOM     11  O   UNL     1      61.783  62.407  65.598  0.00  0.00    +0.000 OA
ATOM     12  C   UNL     1      61.880  63.119  66.832  0.00  0.00    +0.000 C 
ATOM     13  O   UNL     1      62.656  63.334  66.647  0.00  0.00    +0.000 OA
ATOM     14  C   UNL     1      61.542  63.368  67.543  0.00  0.00    +0.000 C 
ATOM     15  O   UNL     1      61.978  63.832  68.068  0.00  0.00    +0.000 OA
ATOM     16  C   UNL     1      61.640  64.081  68.777  0.00  0.00    +0.000 C 
ATOM     17  C   UNL     1      60.865  63.866  68.963  0.00  0.00    +0.000 C 
ATOM     18  O   UNL     1      60.429  63.402  68.438  0.00  0.00    +0.000 OA
ATOM     19  C   UNL     1      60.526  64.115  69.672  0.00  0.00    +0.000 C 
ATOM     20  O   UNL     1      59.752  63.900  69.857  0.00  0.00    +0.000 OA
ATOM     21  C   UNL     1      60.962  64.579  70.197  0.00  0.00    +0.000 C 
ATOM     22  O   UNL     1      60.623  64.827  70.907  0.00  0.00    +0.000 OA
ATOM     23  C   UNL     1      61.060  65.291  71.432  0.00  0.00    +0.000 C 
ATOM     24  C   UNL     1      61.835  65.506  71.247  0.00  0.00    +0.000 C 
ATOM     25  O   UNL     1      62.173  65.257  70.537  0.00  0.00    +0.000 OA
ATOM     26  C   UNL     1      62.270  65.970  71.771  0.00  0.00    +0.000 C 
ATOM     27  O   UNL     1      63.046  66.185  71.586  0.00  0.00    +0.000 OA
ATOM     28  C   UNL     1      61.932  66.219  72.482  0.00  0.00    +0.000 C 
ATOM     29  O   UNL     1      62.368  66.682  73.006  0.00  0.00    +0.000 OA
ATOM     30  O   UNL     1      61.157  66.004  72.667  0.00  0.00    +0.000 OA
ATOM     31  C   UNL     1      60.721  65.540  72.142  0.00  0.00    +0.000 C 
ATOM     32  C   UNL     1      59.947  65.325  72.327  0.00  0.00    +0.000 C 
ATOM     33  O   UNL     1      59.510  64.862  71.802  0.00  0.00    +0.000 OA
ATOM     34  O   UNL     1      59.608  65.574  73.037  0.00  0.00    +0.000 OA
ATOM     35  C   UNL     1      58.833  65.360  73.222  0.00  0.00    +0.000 C 
ATOM     36  O   UNL     1      61.737  64.794  70.012  0.00  0.00    +0.000 OA
ATOM     37  C   UNL     1      62.075  64.544  69.302  0.00  0.00    +0.000 C 
ATOM     38  C   UNL     1      62.851  64.759  69.117  0.00  0.00    +0.000 C 
ATOM     39  O   UNL     1      63.189  64.511  68.407  0.00  0.00    +0.000 OA
ATOM     40  O   UNL     1      63.287  65.223  69.642  0.00  0.00    +0.000 OA
ATOM     41  C   UNL     1      64.061  65.438  69.457  0.00  0.00    +0.000 C 
ATOM     42  O   UNL     1      60.768  63.153  67.728  0.00  0.00    +0.000 OA
ATOM     43  C   UNL     1      60.331  62.689  67.203  0.00  0.00    +0.000 C 
ATOM     44  C   UNL     1      59.557  62.475  67.388  0.00  0.00    +0.000 C 
ATOM     45  O   UNL     1      59.218  62.724  68.098  0.00  0.00    +0.000 OA
ATOM     46  O   UNL     1      59.121  62.011  66.863  0.00  0.00    +0.000 OA
ATOM     47  C   UNL     1      59.460  61.762  66.154  0.00  0.00    +0.000 C 
ATOM     48  C   UNL     1      60.136  61.264  64.734  0.00  0.00    +0.000 C 
ATOM     49  O   UNL     1      59.362  61.050  64.919  0.00  0.00    +0.000 OA
ATOM     50  C   UNL     1      60.475  61.015  64.024  0.00  0.00    +0.000 C 
ATOM     51  O   UNL     1      60.039  60.552  63.499  0.00  0.00    +0.000 OA
ATOM     52  C   UNL     1      61.250  61.230  63.838  0.00  0.00    +0.000 C 
ATOM     53  O   UNL     1      61.588  60.981  63.129  0.00  0.00    +0.000 OA
ENDROOT
TORSDOF 0
ENDMDL
MODEL 7
REMARK VINA RESULT:   -14.548      1.226      7.300
REMARK INTER + INTRA:         -14.548
REMARK INTER:                 -14.548
REMARK INTRA:                   0.000
REMARK UNBOUND:                 0.000
ROOT
REMARK  Name = tetragalacturonic acid hydroxymethylester
REMARK                            x       y       z     vdW  Elec       q    Type
REMARK                         _______ _______ _______ _____ _____    ______ ____
ATOM      1  C   UNL     1      63.247  69.217  54.096  0.00  0.00    +0.000 C 
ATOM      2  O   UNL     1      62.599  69.094  53.600  0.00  0.00    +0.000 OA
ATOM      3  C   UNL     1      62.378  68.326  53.395  0.00  0.00    +0.000 C 
ATOM      4  O   UNL     1      62.803  67.682  53.685  0.00  0.00    +0.000 OA
ATOM      5  C   UNL     1      61.729  68.203  52.898  0.00  0.00    +0.000 C 
ATOM      6  O   UNL     1      61.508  67.436  52.692  0.00  0.00    +0.000 OA
ATOM      7  C   UNL     1      60.860  67.313  52.196  0.00  0.00    +0.000 C 
ATOM      8  O   UNL     1      60.638  66.545  51.990  0.00  0.00    +0.000 OA
ATOM      9  C   UNL     1      61.064  65.901  52.281  0.00  0.00    +0.000 C 
ATOM     10  C   UNL     1      61.711  66.024  52.777  0.00  0.00    +0.000 C 
ATOM     11  O   UNL     1      61.933  66.791  52.983  0.00  0.00    +0.000 OA
ATOM     12  C   UNL     1      62.136  65.380  53.067  0.00  0.00    +0.000 C 
ATOM     13  O   UNL     1      62.785  65.503  53.564  0.00  0.00    +0.000 OA
ATOM     14  C   UNL     1      61.915  64.612  52.862  0.00  0.00    +0.000 C 
ATOM     15  O   UNL     1      62.340  63.967  53.152  0.00  0.00    +0.000 OA
ATOM     16  C   UNL     1      62.118  63.200  52.946  0.00  0.00    +0.000 C 
ATOM     17  C   UNL     1      61.471  63.077  52.450  0.00  0.00    +0.000 C 
ATOM     18  O   UNL     1      61.045  63.721  52.160  0.00  0.00    +0.000 OA
ATOM     19  C   UNL     1      61.248  62.310  52.244  0.00  0.00    +0.000 C 
ATOM     20  O   UNL     1      60.601  62.187  51.749  0.00  0.00    +0.000 OA
ATOM     21  C   UNL     1      61.674  61.665  52.535  0.00  0.00    +0.000 C 
ATOM     22  O   UNL     1      61.452  60.898  52.329  0.00  0.00    +0.000 OA
ATOM     23  C   UNL     1      61.878  60.253  52.620  0.00  0.00    +0.000 C 
ATOM     24  C   UNL     1      62.525  60.376  53.116  0.00  0.00    +0.000 C 
ATOM     25  O   UNL     1      62.747  61.144  53.321  0.00  0.00    +0.000 OA
ATOM     26  C   UNL     1      62.950  59.732  53.406  0.00  0.00    +0.000 C 
ATOM     27  O   UNL     1      63.599  59.855  53.902  0.00  0.00    +0.000 OA
ATOM     28  C   UNL     1      62.729  58.964  53.200  0.00  0.00    +0.000 C 
ATOM     29  O   UNL     1      63.154  58.320  53.490  0.00  0.00    +0.000 OA
ATOM     30  O   UNL     1      62.081  58.841  52.704  0.00  0.00    +0.000 OA
ATOM     31  C   UNL     1      61.655  59.486  52.413  0.00  0.00    +0.000 C 
ATOM     32  C   UNL     1      61.008  59.363  51.918  0.00  0.00    +0.000 C 
ATOM     33  O   UNL     1      60.583  60.007  51.627  0.00  0.00    +0.000 OA
ATOM     34  O   UNL     1      60.786  58.595  51.712  0.00  0.00    +0.000 OA
ATOM     35  C   UNL     1      60.139  58.472  51.216  0.00  0.00    +0.000 C 
ATOM     36  O   UNL     1      62.322  61.788  53.031  0.00  0.00    +0.000 OA
ATOM     37  C   UNL     1      62.543  62.556  53.236  0.00  0.00    +0.000 C 
ATOM     38  C   UNL     1      63.192  62.679  53.733  0.00  0.00    +0.000 C 
ATOM     39  O   UNL     1      63.413  63.446  53.939  0.00  0.00    +0.000 OA
ATOM     40  O   UNL     1      63.617  62.034  54.023  0.00  0.00    +0.000 OA
ATOM     41  C   UNL     1      64.264  62.157  54.519  0.00  0.00    +0.000 C 
ATOM     42  O   UNL     1      61.267  64.489  52.366  0.00  0.00    +0.000 OA
ATOM     43  C   UNL     1      60.841  65.134  52.075  0.00  0.00    +0.000 C 
ATOM     44  C   UNL     1      60.194  65.011  51.579  0.00  0.00    +0.000 C 
ATOM     45  O   UNL     1      59.972  64.243  51.373  0.00  0.00    +0.000 OA
ATOM     46  O   UNL     1      59.769  65.655  51.289  0.00  0.00    +0.000 OA
ATOM     47  C   UNL     1      59.991  66.422  51.495  0.00  0.00    +0.000 C 
ATOM     48  C   UNL     1      60.434  67.957  51.906  0.00  0.00    +0.000 C 
ATOM     49  O   UNL     1      59.787  67.834  51.410  0.00  0.00    +0.000 OA
ATOM     50  C   UNL     1      60.657  68.725  52.112  0.00  0.00    +0.000 C 
ATOM     51  O   UNL     1      60.231  69.368  51.821  0.00  0.00    +0.000 OA
ATOM     52  C   UNL     1      61.304  68.848  52.608  0.00  0.00    +0.000 C 
ATOM     53  O   UNL     1      61.526  69.615  52.813  0.00  0.00    +0.000 OA
ENDROOT
TORSDOF 0
ENDMDL
MODEL 8
REMARK VINA RESULT:   -14.448      1.258      3.000
REMARK INTER + INTRA:         -14.448
REMARK INTER:                 -14.448
REMARK INTRA:                   0.000
REMARK UNBOUND:                 0.000
ROOT
REMARK  Name = tetragalacturonic acid hydroxymethylester
REMARK                            x       y       z     vdW  Elec       q    Type
REMARK                         _______ _______ _______ _____ _____    ______ ____
ATOM      1  C   UNL     1      63.622  59.553  53.935  0.00  0.00    +0.000 C 
ATOM      2  O   UNL     1      63.530  59.738  53.136  0.00  0.00    +0.000 OA
ATOM      3  C   UNL     1      63.322  60.505  52.913  0.00  0.00    +0.000 C 
ATOM      4  O   UNL     1      63.206  61.085  53.487  0.00  0.00    +0.000 OA
ATOM      5  C   UNL     1      63.229  60.690  52.113  0.00  0.00    +0.000 C 
ATOM      6  O   UNL     1      63.021  61.456  51.889  0.00  0.00    +0.000 OA
ATOM      7  C   UNL     1      62.929  61.641  51.091  0.00  0.00    +0.000 C 
ATOM      8  O   UNL     1      62.721  62.408  50.866  0.00  0.00    +0.000 OA
ATOM      9  C   UNL     1      62.605  62.988  51.441  0.00  0.00    +0.000 C 
ATOM     10  C   UNL     1      62.697  62.803  52.240  0.00  0.00    +0.000 C 
ATOM     11  O   UNL     1      62.905  62.037  52.463  0.00  0.00    +0.000 OA
ATOM     12  C   UNL     1      62.581  63.383  52.813  0.00  0.00    +0.000 C 
ATOM     13  O   UNL     1      62.673  63.197  53.613  0.00  0.00    +0.000 OA
ATOM     14  C   UNL     1      62.372  64.150  52.590  0.00  0.00    +0.000 C 
ATOM     15  O   UNL     1      62.256  64.731  53.164  0.00  0.00    +0.000 OA
ATOM     16  C   UNL     1      62.048  65.496  52.940  0.00  0.00    +0.000 C 
ATOM     17  C   UNL     1      61.956  65.682  52.141  0.00  0.00    +0.000 C 
ATOM     18  O   UNL     1      62.072  65.102  51.567  0.00  0.00    +0.000 OA
ATOM     19  C   UNL     1      61.748  66.448  51.917  0.00  0.00    +0.000 C 
ATOM     20  O   UNL     1      61.655  66.633  51.119  0.00  0.00    +0.000 OA
ATOM     21  C   UNL     1      61.631  67.029  52.492  0.00  0.00    +0.000 C 
ATOM     22  O   UNL     1      61.423  67.795  52.267  0.00  0.00    +0.000 OA
ATOM     23  C   UNL     1      61.307  68.376  52.842  0.00  0.00    +0.000 C 
ATOM     24  C   UNL     1      61.399  68.190  53.640  0.00  0.00    +0.000 C 
ATOM     25  O   UNL     1      61.608  67.424  53.864  0.00  0.00    +0.000 OA
ATOM     26  C   UNL     1      61.283  68.771  54.214  0.00  0.00    +0.000 C 
ATOM     27  O   UNL     1      61.375  68.585  55.014  0.00  0.00    +0.000 OA
ATOM     28  C   UNL     1      61.075  69.537  53.991  0.00  0.00    +0.000 C 
ATOM     29  O   UNL     1      60.959  70.118  54.564  0.00  0.00    +0.000 OA
ATOM     30  O   UNL     1      60.983  69.723  53.192  0.00  0.00    +0.000 OA
ATOM     31  C   UNL     1      61.099  69.142  52.617  0.00  0.00    +0.000 C 
ATOM     32  C   UNL     1      61.007  69.327  51.819  0.00  0.00    +0.000 C 
ATOM     33  O   UNL     1      61.123  68.747  51.245  0.00  0.00    +0.000 OA
ATOM     34  O   UNL     1      60.798  70.093  51.595  0.00  0.00    +0.000 OA
ATOM     35  C   UNL     1      60.706  70.279  50.796  0.00  0.00    +0.000 C 
ATOM     36  O   UNL     1      61.724  66.843  53.290  0.00  0.00    +0.000 OA
ATOM     37  C   UNL     1      61.932  66.077  53.514  0.00  0.00    +0.000 C 
ATOM     38  C   UNL     1      62.024  65.891  54.313  0.00  0.00    +0.000 C 
ATOM     39  O   UNL     1      62.232  65.126  54.537  0.00  0.00    +0.000 OA
ATOM     40  O   UNL     1      61.908  66.473  54.887  0.00  0.00    +0.000 OA
ATOM     41  C   UNL     1      62.000  66.287  55.686  0.00  0.00    +0.000 C 
ATOM     42  O   UNL     1      62.280  64.335  51.791  0.00  0.00    +0.000 OA
ATOM     43  C   UNL     1      62.396  63.754  51.216  0.00  0.00    +0.000 C 
ATOM     44  C   UNL     1      62.304  63.939  50.419  0.00  0.00    +0.000 C 
ATOM     45  O   UNL     1      62.096  64.706  50.194  0.00  0.00    +0.000 OA
ATOM     46  O   UNL     1      62.420  63.359  49.844  0.00  0.00    +0.000 OA
ATOM     47  C   UNL     1      62.628  62.593  50.069  0.00  0.00    +0.000 C 
ATOM     48  C   UNL     1      63.045  61.061  50.516  0.00  0.00    +0.000 C 
ATOM     49  O   UNL     1      62.953  61.246  49.718  0.00  0.00    +0.000 OA
ATOM     50  C   UNL     1      63.253  60.294  50.741  0.00  0.00    +0.000 C 
ATOM     51  O   UNL     1      63.369  59.714  50.166  0.00  0.00    +0.000 OA
ATOM     52  C   UNL     1      63.346  60.109  51.539  0.00  0.00    +0.000 C 
ATOM     53  O   UNL     1      63.554  59.343  51.763  0.00  0.00    +0.000 OA
ENDROOT
TORSDOF 0
ENDMDL
MODEL 9
REMARK VINA RESULT:   -13.292      2.080      4.270
REMARK INTER + INTRA:         -13.292
REMARK INTER:                 -13.292
REMARK INTRA:                   0.000
REMARK UNBOUND:                 0.000
ROOT
REMARK  Name = tetragalacturonic acid hydroxymethylester
REMARK                            x       y       z     vdW  Elec       q    Type
REMARK                         _______ _______ _______ _____ _____    ______ ____
ATOM      1  C   UNL     1      63.073  62.435  50.247  0.00  0.00    +0.000 C 
ATOM      2  O   UNL     1      63.073  62.541  51.065  0.00  0.00    +0.000 OA
ATOM      3  C   UNL     1      62.792  63.245  51.389  0.00  0.00    +0.000 C 
ATOM      4  O   UNL     1      62.510  63.843  50.896  0.00  0.00    +0.000 OA
ATOM      5  C   UNL     1      62.792  63.352  52.208  0.00  0.00    +0.000 C 
ATOM      6  O   UNL     1      62.511  64.055  52.533  0.00  0.00    +0.000 OA
ATOM      7  C   UNL     1      62.511  64.161  53.351  0.00  0.00    +0.000 C 
ATOM      8  O   UNL     1      62.230  64.866  53.676  0.00  0.00    +0.000 OA
ATOM      9  C   UNL     1      61.949  65.464  53.182  0.00  0.00    +0.000 C 
ATOM     10  C   UNL     1      61.948  65.358  52.364  0.00  0.00    +0.000 C 
ATOM     11  O   UNL     1      62.229  64.654  52.040  0.00  0.00    +0.000 OA
ATOM     12  C   UNL     1      61.667  65.956  51.871  0.00  0.00    +0.000 C 
ATOM     13  O   UNL     1      61.667  65.850  51.052  0.00  0.00    +0.000 OA
ATOM     14  C   UNL     1      61.386  66.661  52.195  0.00  0.00    +0.000 C 
ATOM     15  O   UNL     1      61.104  67.260  51.703  0.00  0.00    +0.000 OA
ATOM     16  C   UNL     1      60.823  67.963  52.027  0.00  0.00    +0.000 C 
ATOM     17  C   UNL     1      60.823  68.069  52.845  0.00  0.00    +0.000 C 
ATOM     18  O   UNL     1      61.105  67.472  53.339  0.00  0.00    +0.000 OA
ATOM     19  C   UNL     1      60.542  68.773  53.170  0.00  0.00    +0.000 C 
ATOM     20  O   UNL     1      60.543  68.879  53.988  0.00  0.00    +0.000 OA
ATOM     21  C   UNL     1      60.261  69.372  52.676  0.00  0.00    +0.000 C 
ATOM     22  O   UNL     1      59.980  70.076  53.002  0.00  0.00    +0.000 OA
ATOM     23  C   UNL     1      59.698  70.675  52.508  0.00  0.00    +0.000 C 
ATOM     24  C   UNL     1      59.698  70.569  51.690  0.00  0.00    +0.000 C 
ATOM     25  O   UNL     1      59.979  69.864  51.365  0.00  0.00    +0.000 OA
ATOM     26  C   UNL     1      59.416  71.167  51.197  0.00  0.00    +0.000 C 
ATOM     27  O   UNL     1      59.416  71.061  50.378  0.00  0.00    +0.000 OA
ATOM     28  C   UNL     1      59.135  71.871  51.521  0.00  0.00    +0.000 C 
ATOM     29  O   UNL     1      58.854  72.469  51.028  0.00  0.00    +0.000 OA
ATOM     30  O   UNL     1      59.135  71.977  52.339  0.00  0.00    +0.000 OA
ATOM     31  C   UNL     1      59.417  71.379  52.833  0.00  0.00    +0.000 C 
ATOM     32  C   UNL     1      59.417  71.485  53.650  0.00  0.00    +0.000 C 
ATOM     33  O   UNL     1      59.699  70.887  54.144  0.00  0.00    +0.000 OA
ATOM     34  O   UNL     1      59.136  72.190  53.975  0.00  0.00    +0.000 OA
ATOM     35  C   UNL     1      59.136  72.296  54.794  0.00  0.00    +0.000 C 
ATOM     36  O   UNL     1      60.260  69.266  51.858  0.00  0.00    +0.000 OA
ATOM     37  C   UNL     1      60.542  68.561  51.534  0.00  0.00    +0.000 C 
ATOM     38  C   UNL     1      60.541  68.455  50.715  0.00  0.00    +0.000 C 
ATOM     39  O   UNL     1      60.822  67.751  50.391  0.00  0.00    +0.000 OA
ATOM     40  O   UNL     1      60.260  69.054  50.222  0.00  0.00    +0.000 OA
ATOM     41  C   UNL     1      60.259  68.948  49.404  0.00  0.00    +0.000 C 
ATOM     42  O   UNL     1      61.386  66.767  53.014  0.00  0.00    +0.000 OA
ATOM     43  C   UNL     1      61.668  66.168  53.508  0.00  0.00    +0.000 C 
ATOM     44  C   UNL     1      61.668  66.274  54.325  0.00  0.00    +0.000 C 
ATOM     45  O   UNL     1      61.387  66.979  54.650  0.00  0.00    +0.000 OA
ATOM     46  O   UNL     1      61.949  65.676  54.819  0.00  0.00    +0.000 OA
ATOM     47  C   UNL     1      62.230  64.972  54.493  0.00  0.00    +0.000 C 
ATOM     48  C   UNL     1      62.793  63.564  53.845  0.00  0.00    +0.000 C 
ATOM     49  O   UNL     1      62.793  63.670  54.662  0.00  0.00    +0.000 OA
ATOM     50  C   UNL     1      63.074  62.859  53.520  0.00  0.00    +0.000 C 
ATOM     51  O   UNL     1      63.356  62.261  54.013  0.00  0.00    +0.000 OA
ATOM     52  C   UNL     1      63.074  62.753  52.701  0.00  0.00    +0.000 C 
ATOM     53  O   UNL     1      63.355  62.049  52.377  0.00  0.00    +0.000 OA
ENDROOT
TORSDOF 0
ENDMDL
