MODEL 1
REMARK VINA RESULT:   -11.556      0.000      0.000
REMARK INTER + INTRA:         -11.556
REMARK INTER:                 -11.556
REMARK INTRA:                   0.000
REMARK UNBOUND:                 0.000
ROOT
REMARK  Name = thebacon
REMARK                            x       y       z     vdW  Elec       q    Type
REMARK                         _______ _______ _______ _____ _____    ______ ____
ATOM      1  C   UNL     1      59.551  66.431  69.129  0.00  0.00    +0.000 C 
ATOM      2  O   UNL     1      59.701  65.620  69.097  0.00  0.00    +0.000 OA
ATOM      3  C   UNL     1      59.984  65.227  69.766  0.00  0.00    +0.000 A 
ATOM      4  C   UNL     1      60.115  65.663  70.468  0.00  0.00    +0.000 A 
ATOM      5  C   UNL     1      60.399  65.275  71.140  0.00  0.00    +0.000 A 
ATOM      6  C   UNL     1      60.544  64.460  71.089  0.00  0.00    +0.000 A 
ATOM      7  C   UNL     1      60.820  64.087  71.748  0.00  0.00    +0.000 C 
ATOM      8  C   UNL     1      60.941  63.286  71.626  0.00  0.00    +0.000 C 
ATOM      9  C   UNL     1      60.780  62.796  70.790  0.00  0.00    +0.000 C 
ATOM     10  C   UNL     1      60.873  61.861  70.495  0.00  0.00    +0.000 C 
ATOM     11  C   UNL     1      60.686  61.636  69.746  0.00  0.00    +0.000 C 
ATOM     12  C   UNL     1      60.419  62.247  69.269  0.00  0.00    +0.000 C 
ATOM     13  O   UNL     1      60.210  62.084  68.488  0.00  0.00    +0.000 OA
ATOM     14  C   UNL     1      59.939  62.689  67.998  0.00  0.00    +0.000 C 
ATOM     15  C   UNL     1      59.731  62.526  67.216  0.00  0.00    +0.000 C 
ATOM     16  O   UNL     1      59.877  63.460  68.289  0.00  0.00    +0.000 OA
ATOM     17  C   UNL     1      60.351  63.037  69.553  0.00  0.00    +0.000 C 
ATOM     18  O   UNL     1      60.098  63.741  69.185  0.00  0.00    +0.000 OA
ATOM     19  C   UNL     1      60.135  64.388  69.718  0.00  0.00    +0.000 A 
ATOM     20  C   UNL     1      60.416  64.020  70.395  0.00  0.00    +0.000 A 
ATOM     21  C   UNL     1      60.580  63.155  70.372  0.00  0.00    +0.000 C 
ATOM     22  C   UNL     1      60.888  62.265  70.802  0.00  0.00    +0.000 C 
ATOM     23  C   UNL     1      61.186  62.028  71.616  0.00  0.00    +0.000 C 
ATOM     24  N   UNL     1      61.202  62.691  72.094  0.00  0.00    +0.000 NA
ATOM     25  C   UNL     1      61.437  62.737  72.883  0.00  0.00    +0.000 C 
ENDROOT
TORSDOF 0
ENDMDL
MODEL 2
REMARK VINA RESULT:   -11.547      0.587      2.673
REMARK INTER + INTRA:         -11.547
REMARK INTER:                 -11.547
REMARK INTRA:                   0.000
REMARK UNBOUND:                 0.000
ROOT
REMARK  Name = thebacon
REMARK                            x       y       z     vdW  Elec       q    Type
REMARK                         _______ _______ _______ _____ _____    ______ ____
ATOM      1  C   UNL     1      59.940  62.515  67.629  0.00  0.00    +0.000 C 
ATOM      2  O   UNL     1      59.986  63.060  68.246  0.00  0.00    +0.000 OA
ATOM      3  C   UNL     1      60.268  62.824  68.985  0.00  0.00    +0.000 A 
ATOM      4  C   UNL     1      60.502  62.027  69.094  0.00  0.00    +0.000 A 
ATOM      5  C   UNL     1      60.784  61.785  69.832  0.00  0.00    +0.000 A 
ATOM      6  C   UNL     1      60.824  62.348  70.439  0.00  0.00    +0.000 A 
ATOM      7  C   UNL     1      61.100  62.105  71.157  0.00  0.00    +0.000 C 
ATOM      8  C   UNL     1      61.112  62.710  71.709  0.00  0.00    +0.000 C 
ATOM      9  C   UNL     1      60.831  63.640  71.556  0.00  0.00    +0.000 C 
ATOM     10  C   UNL     1      60.787  64.459  72.101  0.00  0.00    +0.000 C 
ATOM     11  C   UNL     1      60.520  65.153  71.795  0.00  0.00    +0.000 C 
ATOM     12  C   UNL     1      60.295  65.108  71.008  0.00  0.00    +0.000 C 
ATOM     13  O   UNL     1      60.011  65.787  70.633  0.00  0.00    +0.000 OA
ATOM     14  C   UNL     1      59.782  65.756  69.842  0.00  0.00    +0.000 C 
ATOM     15  C   UNL     1      59.498  66.434  69.467  0.00  0.00    +0.000 C 
ATOM     16  O   UNL     1      59.837  65.046  69.424  0.00  0.00    +0.000 OA
ATOM     17  C   UNL     1      60.346  64.392  70.570  0.00  0.00    +0.000 C 
ATOM     18  O   UNL     1      60.155  64.207  69.779  0.00  0.00    +0.000 OA
ATOM     19  C   UNL     1      60.310  63.399  69.614  0.00  0.00    +0.000 A 
ATOM     20  C   UNL     1      60.593  63.140  70.339  0.00  0.00    +0.000 A 
ATOM     21  C   UNL     1      60.647  63.715  71.005  0.00  0.00    +0.000 C 
ATOM     22  C   UNL     1      60.874  63.973  71.981  0.00  0.00    +0.000 C 
ATOM     23  C   UNL     1      61.199  63.529  72.691  0.00  0.00    +0.000 C 
ATOM     24  N   UNL     1      61.332  62.751  72.478  0.00  0.00    +0.000 NA
ATOM     25  C   UNL     1      61.628  62.143  72.950  0.00  0.00    +0.000 C 
ENDROOT
TORSDOF 0
ENDMDL
MODEL 3
REMARK VINA RESULT:   -11.504      1.268      3.003
REMARK INTER + INTRA:         -11.504
REMARK INTER:                 -11.504
REMARK INTRA:                   0.000
REMARK UNBOUND:                 0.000
ROOT
REMARK  Name = thebacon
REMARK                            x       y       z     vdW  Elec       q    Type
REMARK                         _______ _______ _______ _____ _____    ______ ____
ATOM      1  C   UNL     1      62.159  60.509  72.097  0.00  0.00    +0.000 C 
ATOM      2  O   UNL     1      61.814  61.071  71.601  0.00  0.00    +0.000 OA
ATOM      3  C   UNL     1      61.637  61.823  71.891  0.00  0.00    +0.000 A 
ATOM      4  C   UNL     1      61.812  62.002  72.689  0.00  0.00    +0.000 A 
ATOM      5  C   UNL     1      61.636  62.753  72.985  0.00  0.00    +0.000 A 
ATOM      6  C   UNL     1      61.289  63.304  72.470  0.00  0.00    +0.000 A 
ATOM      7  C   UNL     1      61.120  64.036  72.765  0.00  0.00    +0.000 C 
ATOM      8  C   UNL     1      60.781  64.527  72.205  0.00  0.00    +0.000 C 
ATOM      9  C   UNL     1      60.585  64.293  71.270  0.00  0.00    +0.000 C 
ATOM     10  C   UNL     1      60.191  64.760  70.497  0.00  0.00    +0.000 C 
ATOM     11  C   UNL     1      60.107  64.395  69.785  0.00  0.00    +0.000 C 
ATOM     12  C   UNL     1      60.375  63.620  69.771  0.00  0.00    +0.000 C 
ATOM     13  O   UNL     1      60.317  63.189  69.070  0.00  0.00    +0.000 OA
ATOM     14  C   UNL     1      60.582  62.409  69.042  0.00  0.00    +0.000 C 
ATOM     15  C   UNL     1      60.525  61.978  68.341  0.00  0.00    +0.000 C 
ATOM     16  O   UNL     1      60.906  62.059  69.716  0.00  0.00    +0.000 OA
ATOM     17  C   UNL     1      60.707  63.251  70.451  0.00  0.00    +0.000 C 
ATOM     18  O   UNL     1      61.012  62.485  70.575  0.00  0.00    +0.000 OA
ATOM     19  C   UNL     1      61.280  62.394  71.365  0.00  0.00    +0.000 A 
ATOM     20  C   UNL     1      61.113  63.134  71.676  0.00  0.00    +0.000 A 
ATOM     21  C   UNL     1      60.744  63.741  71.155  0.00  0.00    +0.000 C 
ATOM     22  C   UNL     1      60.359  64.684  70.971  0.00  0.00    +0.000 C 
ATOM     23  C   UNL     1      60.245  65.426  71.465  0.00  0.00    +0.000 C 
ATOM     24  N   UNL     1      60.520  65.285  72.221  0.00  0.00    +0.000 NA
ATOM     25  C   UNL     1      60.528  65.806  72.860  0.00  0.00    +0.000 C 
ENDROOT
TORSDOF 0
ENDMDL
MODEL 4
REMARK VINA RESULT:   -11.455      4.044      4.929
REMARK INTER + INTRA:         -11.455
REMARK INTER:                 -11.455
REMARK INTRA:                   0.000
REMARK UNBOUND:                 0.000
ROOT
REMARK  Name = thebacon
REMARK                            x       y       z     vdW  Elec       q    Type
REMARK                         _______ _______ _______ _____ _____    ______ ____
ATOM      1  C   UNL     1      63.131  68.705  73.176  0.00  0.00    +0.000 C 
ATOM      2  O   UNL     1      63.502  68.219  72.623  0.00  0.00    +0.000 OA
ATOM      3  C   UNL     1      63.191  67.473  72.455  0.00  0.00    +0.000 A 
ATOM      4  C   UNL     1      62.498  67.223  72.853  0.00  0.00    +0.000 A 
ATOM      5  C   UNL     1      62.183  66.478  72.689  0.00  0.00    +0.000 A 
ATOM      6  C   UNL     1      62.571  66.003  72.130  0.00  0.00    +0.000 A 
ATOM      7  C   UNL     1      62.257  65.277  71.974  0.00  0.00    +0.000 C 
ATOM      8  C   UNL     1      62.689  64.863  71.415  0.00  0.00    +0.000 C 
ATOM      9  C   UNL     1      63.502  65.179  70.960  0.00  0.00    +0.000 C 
ATOM     10  C   UNL     1      64.116  64.811  70.284  0.00  0.00    +0.000 C 
ATOM     11  C   UNL     1      64.752  65.229  70.023  0.00  0.00    +0.000 C 
ATOM     12  C   UNL     1      64.831  65.969  70.367  0.00  0.00    +0.000 C 
ATOM     13  O   UNL     1      65.463  66.450  70.142  0.00  0.00    +0.000 OA
ATOM     14  C   UNL     1      65.555  67.196  70.479  0.00  0.00    +0.000 C 
ATOM     15  C   UNL     1      66.187  67.677  70.254  0.00  0.00    +0.000 C 
ATOM     16  O   UNL     1      65.014  67.463  71.043  0.00  0.00    +0.000 OA
ATOM     17  C   UNL     1      64.288  66.254  70.942  0.00  0.00    +0.000 C 
ATOM     18  O   UNL     1      64.249  66.972  71.365  0.00  0.00    +0.000 OA
ATOM     19  C   UNL     1      63.587  66.981  71.881  0.00  0.00    +0.000 A 
ATOM     20  C   UNL     1      63.259  66.244  71.731  0.00  0.00    +0.000 A 
ATOM     21  C   UNL     1      63.648  65.717  71.142  0.00  0.00    +0.000 C 
ATOM     22  C   UNL     1      63.722  64.836  70.603  0.00  0.00    +0.000 C 
ATOM     23  C   UNL     1      63.238  64.080  70.562  0.00  0.00    +0.000 C 
ATOM     24  N   UNL     1      62.610  64.140  71.080  0.00  0.00    +0.000 NA
ATOM     25  C   UNL     1      62.022  63.580  71.227  0.00  0.00    +0.000 C 
ENDROOT
TORSDOF 0
ENDMDL
MODEL 5
REMARK VINA RESULT:   -11.281      1.404      3.028
REMARK INTER + INTRA:         -11.281
REMARK INTER:                 -11.281
REMARK INTRA:                   0.000
REMARK UNBOUND:                 0.000
ROOT
REMARK  Name = thebacon
REMARK                            x       y       z     vdW  Elec       q    Type
REMARK                         _______ _______ _______ _____ _____    ______ ____
ATOM      1  C   UNL     1      60.779  62.055  67.902  0.00  0.00    +0.000 C 
ATOM      2  O   UNL     1      60.883  62.145  68.715  0.00  0.00    +0.000 OA
ATOM      3  C   UNL     1      60.625  62.833  69.091  0.00  0.00    +0.000 A 
ATOM      4  C   UNL     1      60.260  63.432  68.634  0.00  0.00    +0.000 A 
ATOM      5  C   UNL     1      59.999  64.123  69.005  0.00  0.00    +0.000 A 
ATOM      6  C   UNL     1      60.113  64.194  69.824  0.00  0.00    +0.000 A 
ATOM      7  C   UNL     1      59.857  64.871  70.179  0.00  0.00    +0.000 C 
ATOM      8  C   UNL     1      60.000  64.874  70.986  0.00  0.00    +0.000 C 
ATOM      9  C   UNL     1      60.432  64.157  71.500  0.00  0.00    +0.000 C 
ATOM     10  C   UNL     1      60.669  64.016  72.446  0.00  0.00    +0.000 C 
ATOM     11  C   UNL     1      61.032  63.341  72.692  0.00  0.00    +0.000 C 
ATOM     12  C   UNL     1      61.179  62.802  72.092  0.00  0.00    +0.000 C 
ATOM     13  O   UNL     1      61.550  62.088  72.277  0.00  0.00    +0.000 OA
ATOM     14  C   UNL     1      61.704  61.537  71.684  0.00  0.00    +0.000 C 
ATOM     15  C   UNL     1      62.075  60.823  71.869  0.00  0.00    +0.000 C 
ATOM     16  O   UNL     1      61.488  61.699  70.904  0.00  0.00    +0.000 OA
ATOM     17  C   UNL     1      60.964  62.954  71.293  0.00  0.00    +0.000 C 
ATOM     18  O   UNL     1      61.052  62.503  70.597  0.00  0.00    +0.000 OA
ATOM     19  C   UNL     1      60.739  62.911  69.934  0.00  0.00    +0.000 A 
ATOM     20  C   UNL     1      60.475  63.604  70.284  0.00  0.00    +0.000 A 
ATOM     21  C   UNL     1      60.581  63.710  71.152  0.00  0.00    +0.000 C 
ATOM     22  C   UNL     1      60.486  64.246  72.032  0.00  0.00    +0.000 C 
ATOM     23  C   UNL     1      60.144  65.049  72.247  0.00  0.00    +0.000 C 
ATOM     24  N   UNL     1      59.855  65.403  71.570  0.00  0.00    +0.000 NA
ATOM     25  C   UNL     1      59.494  66.141  71.502  0.00  0.00    +0.000 C 
ENDROOT
TORSDOF 0
ENDMDL
MODEL 6
REMARK VINA RESULT:   -11.211      3.754      5.104
REMARK INTER + INTRA:         -11.211
REMARK INTER:                 -11.211
REMARK INTRA:                   0.000
REMARK UNBOUND:                 0.000
ROOT
REMARK  Name = thebacon
REMARK                            x       y       z     vdW  Elec       q    Type
REMARK                         _______ _______ _______ _____ _____    ______ ____
ATOM      1  C   UNL     1      65.892  67.295  70.223  0.00  0.00    +0.000 C 
ATOM      2  O   UNL     1      65.233  67.245  70.716  0.00  0.00    +0.000 OA
ATOM      3  C   UNL     1      64.766  66.565  70.713  0.00  0.00    +0.000 A 
ATOM      4  C   UNL     1      64.973  65.933  70.204  0.00  0.00    +0.000 A 
ATOM      5  C   UNL     1      64.509  65.249  70.197  0.00  0.00    +0.000 A 
ATOM      6  C   UNL     1      63.850  65.218  70.700  0.00  0.00    +0.000 A 
ATOM      7  C   UNL     1      63.402  64.549  70.688  0.00  0.00    +0.000 C 
ATOM      8  C   UNL     1      62.769  64.586  71.207  0.00  0.00    +0.000 C 
ATOM      9  C   UNL     1      62.546  65.341  71.795  0.00  0.00    +0.000 C 
ATOM     10  C   UNL     1      61.841  65.533  72.455  0.00  0.00    +0.000 C 
ATOM     11  C   UNL     1      61.818  66.231  72.855  0.00  0.00    +0.000 C 
ATOM     12  C   UNL     1      62.423  66.749  72.660  0.00  0.00    +0.000 C 
ATOM     13  O   UNL     1      62.457  67.483  73.034  0.00  0.00    +0.000 OA
ATOM     14  C   UNL     1      63.060  68.014  72.848  0.00  0.00    +0.000 C 
ATOM     15  C   UNL     1      63.094  68.749  73.222  0.00  0.00    +0.000 C 
ATOM     16  O   UNL     1      63.631  67.810  72.287  0.00  0.00    +0.000 OA
ATOM     17  C   UNL     1      63.011  66.554  72.090  0.00  0.00    +0.000 C 
ATOM     18  O   UNL     1      63.669  66.977  71.802  0.00  0.00    +0.000 OA
ATOM     19  C   UNL     1      64.086  66.528  71.229  0.00  0.00    +0.000 A 
ATOM     20  C   UNL     1      63.638  65.841  71.207  0.00  0.00    +0.000 A 
ATOM     21  C   UNL     1      62.931  65.778  71.730  0.00  0.00    +0.000 C 
ATOM     22  C   UNL     1      62.107  65.278  72.106  0.00  0.00    +0.000 C 
ATOM     23  C   UNL     1      61.738  64.472  71.958  0.00  0.00    +0.000 C 
ATOM     24  N   UNL     1      62.179  64.078  71.395  0.00  0.00    +0.000 NA
ATOM     25  C   UNL     1      62.047  63.324  71.088  0.00  0.00    +0.000 C 
ENDROOT
TORSDOF 0
ENDMDL
MODEL 7
REMARK VINA RESULT:   -10.968      3.515      4.166
REMARK INTER + INTRA:         -10.968
REMARK INTER:                 -10.968
REMARK INTRA:                   0.000
REMARK UNBOUND:                 0.000
ROOT
REMARK  Name = thebacon
REMARK                            x       y       z     vdW  Elec       q    Type
REMARK                         _______ _______ _______ _____ _____    ______ ____
ATOM      1  C   UNL     1      60.625  65.501  72.845  0.00  0.00    +0.000 C 
ATOM      2  O   UNL     1      61.127  65.322  72.215  0.00  0.00    +0.000 OA
ATOM      3  C   UNL     1      61.868  65.683  72.163  0.00  0.00    +0.000 A 
ATOM      4  C   UNL     1      62.097  66.228  72.756  0.00  0.00    +0.000 A 
ATOM      5  C   UNL     1      62.837  66.592  72.708  0.00  0.00    +0.000 A 
ATOM      6  C   UNL     1      63.327  66.400  72.068  0.00  0.00    +0.000 A 
ATOM      7  C   UNL     1      64.048  66.758  72.027  0.00  0.00    +0.000 C 
ATOM      8  C   UNL     1      64.478  66.523  71.371  0.00  0.00    +0.000 C 
ATOM      9  C   UNL     1      64.187  65.879  70.688  0.00  0.00    +0.000 C 
ATOM     10  C   UNL     1      64.578  65.504  69.865  0.00  0.00    +0.000 C 
ATOM     11  C   UNL     1      64.178  64.969  69.416  0.00  0.00    +0.000 C 
ATOM     12  C   UNL     1      63.436  64.777  69.706  0.00  0.00    +0.000 C 
ATOM     13  O   UNL     1      62.973  64.233  69.293  0.00  0.00    +0.000 OA
ATOM     14  C   UNL     1      62.224  64.030  69.573  0.00  0.00    +0.000 C 
ATOM     15  C   UNL     1      61.762  63.487  69.159  0.00  0.00    +0.000 C 
ATOM     16  O   UNL     1      61.937  64.371  70.268  0.00  0.00    +0.000 OA
ATOM     17  C   UNL     1      63.131  65.116  70.413  0.00  0.00    +0.000 C 
ATOM     18  O   UNL     1      62.407  65.013  70.814  0.00  0.00    +0.000 OA
ATOM     19  C   UNL     1      62.377  65.488  71.505  0.00  0.00    +0.000 A 
ATOM     20  C   UNL     1      63.107  65.860  71.475  0.00  0.00    +0.000 A 
ATOM     21  C   UNL     1      63.651  65.676  70.807  0.00  0.00    +0.000 C 
ATOM     22  C   UNL     1      64.539  65.784  70.287  0.00  0.00    +0.000 C 
ATOM     23  C   UNL     1      65.285  66.270  70.408  0.00  0.00    +0.000 C 
ATOM     24  N   UNL     1      65.204  66.713  71.090  0.00  0.00    +0.000 NA
ATOM     25  C   UNL     1      65.748  67.238  71.418  0.00  0.00    +0.000 C 
ENDROOT
TORSDOF 0
ENDMDL
MODEL 8
REMARK VINA RESULT:   -10.894      1.568      3.061
REMARK INTER + INTRA:         -10.894
REMARK INTER:                 -10.894
REMARK INTRA:                   0.000
REMARK UNBOUND:                 0.000
ROOT
REMARK  Name = thebacon
REMARK                            x       y       z     vdW  Elec       q    Type
REMARK                         _______ _______ _______ _____ _____    ______ ____
ATOM      1  C   UNL     1      59.399  66.909  68.889  0.00  0.00    +0.000 C 
ATOM      2  O   UNL     1      59.553  66.564  69.623  0.00  0.00    +0.000 OA
ATOM      3  C   UNL     1      59.760  65.766  69.668  0.00  0.00    +0.000 A 
ATOM      4  C   UNL     1      59.809  65.319  68.962  0.00  0.00    +0.000 A 
ATOM      5  C   UNL     1      60.016  64.520  69.001  0.00  0.00    +0.000 A 
ATOM      6  C   UNL     1      60.167  64.192  69.748  0.00  0.00    +0.000 A 
ATOM      7  C   UNL     1      60.368  63.412  69.779  0.00  0.00    +0.000 C 
ATOM      8  C   UNL     1      60.502  63.154  70.545  0.00  0.00    +0.000 C 
ATOM      9  C   UNL     1      60.437  63.699  71.360  0.00  0.00    +0.000 C 
ATOM     10  C   UNL     1      60.564  63.540  72.324  0.00  0.00    +0.000 C 
ATOM     11  C   UNL     1      60.464  64.128  72.863  0.00  0.00    +0.000 C 
ATOM     12  C   UNL     1      60.251  64.850  72.537  0.00  0.00    +0.000 C 
ATOM     13  O   UNL     1      60.132  65.496  73.037  0.00  0.00    +0.000 OA
ATOM     14  C   UNL     1      59.918  66.227  72.723  0.00  0.00    +0.000 C 
ATOM     15  C   UNL     1      59.799  66.873  73.222  0.00  0.00    +0.000 C 
ATOM     16  O   UNL     1      59.822  66.314  71.907  0.00  0.00    +0.000 OA
ATOM     17  C   UNL     1      60.150  64.952  71.708  0.00  0.00    +0.000 C 
ATOM     18  O   UNL     1      59.940  65.617  71.250  0.00  0.00    +0.000 OA
ATOM     19  C   UNL     1      59.916  65.423  70.434  0.00  0.00    +0.000 A 
ATOM     20  C   UNL     1      60.119  64.628  70.453  0.00  0.00    +0.000 A 
ATOM     21  C   UNL     1      60.285  64.251  71.231  0.00  0.00    +0.000 C 
ATOM     22  C   UNL     1      60.544  63.444  71.826  0.00  0.00    +0.000 C 
ATOM     23  C   UNL     1      60.748  62.583  71.666  0.00  0.00    +0.000 C 
ATOM     24  N   UNL     1      60.710  62.448  70.861  0.00  0.00    +0.000 NA
ATOM     25  C   UNL     1      60.854  61.741  70.462  0.00  0.00    +0.000 C 
ENDROOT
TORSDOF 0
ENDMDL
MODEL 9
REMARK VINA RESULT:   -10.887      3.981      5.308
REMARK INTER + INTRA:         -10.887
REMARK INTER:                 -10.887
REMARK INTRA:                   0.000
REMARK UNBOUND:                 0.000
ROOT
REMARK  Name = thebacon
REMARK                            x       y       z     vdW  Elec       q    Type
REMARK                         _______ _______ _______ _____ _____    ______ ____
ATOM      1  C   UNL     1      62.059  63.871  69.441  0.00  0.00    +0.000 C 
ATOM      2  O   UNL     1      62.177  64.457  70.010  0.00  0.00    +0.000 OA
ATOM      3  C   UNL     1      62.889  64.874  70.031  0.00  0.00    +0.000 A 
ATOM      4  C   UNL     1      63.483  64.692  69.470  0.00  0.00    +0.000 A 
ATOM      5  C   UNL     1      64.197  65.107  69.486  0.00  0.00    +0.000 A 
ATOM      6  C   UNL     1      64.297  65.692  70.066  0.00  0.00    +0.000 A 
ATOM      7  C   UNL     1      64.997  66.092  70.077  0.00  0.00    +0.000 C 
ATOM      8  C   UNL     1      65.027  66.653  70.673  0.00  0.00    +0.000 C 
ATOM      9  C   UNL     1      64.315  66.848  71.322  0.00  0.00    +0.000 C 
ATOM     10  C   UNL     1      64.203  67.473  72.075  0.00  0.00    +0.000 C 
ATOM     11  C   UNL     1      63.526  67.490  72.509  0.00  0.00    +0.000 C 
ATOM     12  C   UNL     1      62.958  66.951  72.266  0.00  0.00    +0.000 C 
ATOM     13  O   UNL     1      62.239  66.918  72.670  0.00  0.00    +0.000 OA
ATOM     14  C   UNL     1      61.659  66.381  72.436  0.00  0.00    +0.000 C 
ATOM     15  C   UNL     1      60.940  66.348  72.840  0.00  0.00    +0.000 C 
ATOM     16  O   UNL     1      61.797  65.875  71.798  0.00  0.00    +0.000 OA
ATOM     17  C   UNL     1      63.085  66.431  71.618  0.00  0.00    +0.000 C 
ATOM     18  O   UNL     1      62.604  65.845  71.270  0.00  0.00    +0.000 OA
ATOM     19  C   UNL     1      62.997  65.477  70.627  0.00  0.00    +0.000 A 
ATOM     20  C   UNL     1      63.713  65.877  70.627  0.00  0.00    +0.000 A 
ATOM     21  C   UNL     1      63.849  66.504  71.231  0.00  0.00    +0.000 C 
ATOM     22  C   UNL     1      64.423  67.237  71.682  0.00  0.00    +0.000 C 
ATOM     23  C   UNL     1      65.246  67.569  71.542  0.00  0.00    +0.000 C 
ATOM     24  N   UNL     1      65.583  67.179  70.908  0.00  0.00    +0.000 NA
ATOM     25  C   UNL     1      66.331  67.299  70.582  0.00  0.00    +0.000 C 
ENDROOT
TORSDOF 0
ENDMDL
