MODEL 1
REMARK VINA RESULT:   -10.565      0.000      0.000
REMARK INTER + INTRA:         -10.565
REMARK INTER:                 -10.565
REMARK INTRA:                   0.000
REMARK UNBOUND:                 0.000
ROOT
REMARK  Name = thenalidine
REMARK                            x       y       z     vdW  Elec       q    Type
REMARK                         _______ _______ _______ _____ _____    ______ ____
ATOM      1  C   UNL     1      61.231  64.385  69.864  0.00  0.00    +0.000 C 
ATOM      2  N   UNL     1      61.206  63.986  69.142  0.00  0.00    +0.000 NA
ATOM      3  C   UNL     1      61.895  63.896  68.696  0.00  0.00    +0.000 C 
ATOM      4  C   UNL     1      61.871  63.497  67.974  0.00  0.00    +0.000 C 
ATOM      5  C   UNL     1      61.157  63.189  67.698  0.00  0.00    +0.000 C 
ATOM      6  C   UNL     1      60.469  63.279  68.143  0.00  0.00    +0.000 C 
ATOM      7  C   UNL     1      60.493  63.678  68.865  0.00  0.00    +0.000 C 
ATOM      8  N   UNL     1      61.132  62.790  66.976  0.00  0.00    +0.000 N 
ATOM      9  C   UNL     1      61.822  62.700  66.531  0.00  0.00    +0.000 C 
ATOM     10  C   UNL     1      61.797  62.301  65.809  0.00  0.00    +0.000 A 
ATOM     11  C   UNL     1      62.437  62.169  65.306  0.00  0.00    +0.000 A 
ATOM     12  C   UNL     1      62.164  61.751  64.650  0.00  0.00    +0.000 A 
ATOM     13  C   UNL     1      61.354  61.625  64.747  0.00  0.00    +0.000 A 
ATOM     14  S   UNL     1      61.127  61.965  65.463  0.00  0.00    +0.000 S 
ATOM     15  C   UNL     1      60.420  62.482  66.699  0.00  0.00    +0.000 A 
ATOM     16  C   UNL     1      60.395  62.083  65.977  0.00  0.00    +0.000 A 
ATOM     17  C   UNL     1      59.681  61.774  65.701  0.00  0.00    +0.000 A 
ATOM     18  C   UNL     1      58.993  61.864  66.145  0.00  0.00    +0.000 A 
ATOM     19  C   UNL     1      59.017  62.263  66.867  0.00  0.00    +0.000 A 
ATOM     20  C   UNL     1      59.730  62.572  67.145  0.00  0.00    +0.000 A 
ENDROOT
TORSDOF 0
ENDMDL
MODEL 2
REMARK VINA RESULT:   -10.432      1.055      3.358
REMARK INTER + INTRA:         -10.432
REMARK INTER:                 -10.432
REMARK INTRA:                   0.000
REMARK UNBOUND:                 0.000
ROOT
REMARK  Name = thenalidine
REMARK                            x       y       z     vdW  Elec       q    Type
REMARK                         _______ _______ _______ _____ _____    ______ ____
ATOM      1  C   UNL     1      62.493  61.480  63.364  0.00  0.00    +0.000 C 
ATOM      2  N   UNL     1      62.180  61.730  64.085  0.00  0.00    +0.000 NA
ATOM      3  C   UNL     1      62.665  62.108  64.636  0.00  0.00    +0.000 C 
ATOM      4  C   UNL     1      62.352  62.359  65.357  0.00  0.00    +0.000 C 
ATOM      5  C   UNL     1      61.555  62.232  65.526  0.00  0.00    +0.000 C 
ATOM      6  C   UNL     1      61.070  61.855  64.976  0.00  0.00    +0.000 C 
ATOM      7  C   UNL     1      61.383  61.604  64.255  0.00  0.00    +0.000 C 
ATOM      8  N   UNL     1      61.242  62.483  66.247  0.00  0.00    +0.000 N 
ATOM      9  C   UNL     1      61.726  62.861  66.799  0.00  0.00    +0.000 C 
ATOM     10  C   UNL     1      61.413  63.112  67.520  0.00  0.00    +0.000 A 
ATOM     11  C   UNL     1      61.828  63.495  68.121  0.00  0.00    +0.000 A 
ATOM     12  C   UNL     1      61.301  63.644  68.738  0.00  0.00    +0.000 A 
ATOM     13  C   UNL     1      60.561  63.353  68.518  0.00  0.00    +0.000 A 
ATOM     14  S   UNL     1      60.630  63.024  67.765  0.00  0.00    +0.000 S 
ATOM     15  C   UNL     1      60.445  62.357  66.418  0.00  0.00    +0.000 A 
ATOM     16  C   UNL     1      60.132  62.608  67.139  0.00  0.00    +0.000 A 
ATOM     17  C   UNL     1      59.334  62.481  67.308  0.00  0.00    +0.000 A 
ATOM     18  C   UNL     1      58.850  62.104  66.758  0.00  0.00    +0.000 A 
ATOM     19  C   UNL     1      59.163  61.853  66.037  0.00  0.00    +0.000 A 
ATOM     20  C   UNL     1      59.960  61.979  65.866  0.00  0.00    +0.000 A 
ENDROOT
TORSDOF 0
ENDMDL
MODEL 3
REMARK VINA RESULT:    -9.722      1.990      3.529
REMARK INTER + INTRA:          -9.722
REMARK INTER:                  -9.722
REMARK INTRA:                   0.000
REMARK UNBOUND:                 0.000
ROOT
REMARK  Name = thenalidine
REMARK                            x       y       z     vdW  Elec       q    Type
REMARK                         _______ _______ _______ _____ _____    ______ ____
ATOM      1  C   UNL     1      59.413  66.967  70.848  0.00  0.00    +0.000 C 
ATOM      2  N   UNL     1      59.610  66.236  70.520  0.00  0.00    +0.000 NA
ATOM      3  C   UNL     1      59.689  66.159  69.701  0.00  0.00    +0.000 C 
ATOM      4  C   UNL     1      59.886  65.428  69.373  0.00  0.00    +0.000 C 
ATOM      5  C   UNL     1      60.004  64.775  69.864  0.00  0.00    +0.000 C 
ATOM      6  C   UNL     1      59.926  64.852  70.681  0.00  0.00    +0.000 C 
ATOM      7  C   UNL     1      59.729  65.583  71.009  0.00  0.00    +0.000 C 
ATOM      8  N   UNL     1      60.201  64.044  69.535  0.00  0.00    +0.000 N 
ATOM      9  C   UNL     1      60.279  63.966  68.717  0.00  0.00    +0.000 C 
ATOM     10  C   UNL     1      60.476  63.235  68.389  0.00  0.00    +0.000 A 
ATOM     11  C   UNL     1      60.573  63.074  67.586  0.00  0.00    +0.000 A 
ATOM     12  C   UNL     1      60.767  62.277  67.507  0.00  0.00    +0.000 A 
ATOM     13  C   UNL     1      60.790  61.944  68.262  0.00  0.00    +0.000 A 
ATOM     14  S   UNL     1      60.611  62.536  68.807  0.00  0.00    +0.000 S 
ATOM     15  C   UNL     1      60.319  63.390  70.024  0.00  0.00    +0.000 A 
ATOM     16  C   UNL     1      60.516  62.659  69.696  0.00  0.00    +0.000 A 
ATOM     17  C   UNL     1      60.634  62.006  70.186  0.00  0.00    +0.000 A 
ATOM     18  C   UNL     1      60.556  62.083  71.003  0.00  0.00    +0.000 A 
ATOM     19  C   UNL     1      60.359  62.814  71.331  0.00  0.00    +0.000 A 
ATOM     20  C   UNL     1      60.241  63.468  70.843  0.00  0.00    +0.000 A 
ENDROOT
TORSDOF 0
ENDMDL
MODEL 4
REMARK VINA RESULT:    -9.687      1.904      4.164
REMARK INTER + INTRA:          -9.687
REMARK INTER:                  -9.687
REMARK INTRA:                   0.000
REMARK UNBOUND:                 0.000
ROOT
REMARK  Name = thenalidine
REMARK                            x       y       z     vdW  Elec       q    Type
REMARK                         _______ _______ _______ _____ _____    ______ ____
ATOM      1  C   UNL     1      59.943  62.256  66.387  0.00  0.00    +0.000 C 
ATOM      2  N   UNL     1      60.317  62.510  67.077  0.00  0.00    +0.000 NA
ATOM      3  C   UNL     1      60.886  63.107  67.042  0.00  0.00    +0.000 C 
ATOM      4  C   UNL     1      61.260  63.361  67.732  0.00  0.00    +0.000 C 
ATOM      5  C   UNL     1      61.065  63.018  68.457  0.00  0.00    +0.000 C 
ATOM      6  C   UNL     1      60.497  62.422  68.492  0.00  0.00    +0.000 C 
ATOM      7  C   UNL     1      60.123  62.168  67.802  0.00  0.00    +0.000 C 
ATOM      8  N   UNL     1      61.439  63.272  69.147  0.00  0.00    +0.000 N 
ATOM      9  C   UNL     1      62.008  63.869  69.112  0.00  0.00    +0.000 C 
ATOM     10  C   UNL     1      62.382  64.124  69.802  0.00  0.00    +0.000 A 
ATOM     11  C   UNL     1      62.958  64.711  69.853  0.00  0.00    +0.000 A 
ATOM     12  C   UNL     1      63.178  64.785  70.645  0.00  0.00    +0.000 A 
ATOM     13  C   UNL     1      62.737  64.243  71.083  0.00  0.00    +0.000 A 
ATOM     14  S   UNL     1      62.245  63.834  70.563  0.00  0.00    +0.000 S 
ATOM     15  C   UNL     1      61.245  62.930  69.872  0.00  0.00    +0.000 A 
ATOM     16  C   UNL     1      61.619  63.184  70.562  0.00  0.00    +0.000 A 
ATOM     17  C   UNL     1      61.424  62.841  71.287  0.00  0.00    +0.000 A 
ATOM     18  C   UNL     1      60.856  62.245  71.322  0.00  0.00    +0.000 A 
ATOM     19  C   UNL     1      60.481  61.991  70.632  0.00  0.00    +0.000 A 
ATOM     20  C   UNL     1      60.676  62.333  69.907  0.00  0.00    +0.000 A 
ENDROOT
TORSDOF 0
ENDMDL
MODEL 5
REMARK VINA RESULT:    -9.510      2.998      4.627
REMARK INTER + INTRA:          -9.510
REMARK INTER:                  -9.510
REMARK INTRA:                   0.000
REMARK UNBOUND:                 0.000
ROOT
REMARK  Name = thenalidine
REMARK                            x       y       z     vdW  Elec       q    Type
REMARK                         _______ _______ _______ _____ _____    ______ ____
ATOM      1  C   UNL     1      64.173  66.409  70.577  0.00  0.00    +0.000 C 
ATOM      2  N   UNL     1      63.641  65.779  70.550  0.00  0.00    +0.000 NA
ATOM      3  C   UNL     1      63.373  65.496  69.822  0.00  0.00    +0.000 C 
ATOM      4  C   UNL     1      62.841  64.866  69.794  0.00  0.00    +0.000 C 
ATOM      5  C   UNL     1      62.578  64.518  70.494  0.00  0.00    +0.000 C 
ATOM      6  C   UNL     1      62.845  64.800  71.221  0.00  0.00    +0.000 C 
ATOM      7  C   UNL     1      63.377  65.430  71.249  0.00  0.00    +0.000 C 
ATOM      8  N   UNL     1      62.046  63.888  70.467  0.00  0.00    +0.000 N 
ATOM      9  C   UNL     1      61.778  63.606  69.739  0.00  0.00    +0.000 C 
ATOM     10  C   UNL     1      61.246  62.976  69.711  0.00  0.00    +0.000 A 
ATOM     11  C   UNL     1      60.931  62.636  69.029  0.00  0.00    +0.000 A 
ATOM     12  C   UNL     1      60.427  62.026  69.257  0.00  0.00    +0.000 A 
ATOM     13  C   UNL     1      60.429  61.987  70.081  0.00  0.00    +0.000 A 
ATOM     14  S   UNL     1      60.935  62.574  70.362  0.00  0.00    +0.000 S 
ATOM     15  C   UNL     1      61.782  63.540  71.166  0.00  0.00    +0.000 A 
ATOM     16  C   UNL     1      61.250  62.910  71.139  0.00  0.00    +0.000 A 
ATOM     17  C   UNL     1      60.987  62.562  71.839  0.00  0.00    +0.000 A 
ATOM     18  C   UNL     1      61.254  62.844  72.566  0.00  0.00    +0.000 A 
ATOM     19  C   UNL     1      61.786  63.474  72.594  0.00  0.00    +0.000 A 
ATOM     20  C   UNL     1      62.050  63.822  71.894  0.00  0.00    +0.000 A 
ENDROOT
TORSDOF 0
ENDMDL
MODEL 6
REMARK VINA RESULT:    -9.384      2.719      5.506
REMARK INTER + INTRA:          -9.384
REMARK INTER:                  -9.384
REMARK INTRA:                   0.000
REMARK UNBOUND:                 0.000
ROOT
REMARK  Name = thenalidine
REMARK                            x       y       z     vdW  Elec       q    Type
REMARK                         _______ _______ _______ _____ _____    ______ ____
ATOM      1  C   UNL     1      60.514  62.064  67.809  0.00  0.00    +0.000 C 
ATOM      2  N   UNL     1      60.493  62.446  68.540  0.00  0.00    +0.000 NA
ATOM      3  C   UNL     1      60.112  63.175  68.615  0.00  0.00    +0.000 C 
ATOM      4  C   UNL     1      60.091  63.557  69.346  0.00  0.00    +0.000 C 
ATOM      5  C   UNL     1      60.452  63.211  70.002  0.00  0.00    +0.000 C 
ATOM      6  C   UNL     1      60.834  62.483  69.928  0.00  0.00    +0.000 C 
ATOM      7  C   UNL     1      60.854  62.101  69.197  0.00  0.00    +0.000 C 
ATOM      8  N   UNL     1      60.432  63.593  70.733  0.00  0.00    +0.000 N 
ATOM      9  C   UNL     1      60.050  64.321  70.808  0.00  0.00    +0.000 C 
ATOM     10  C   UNL     1      60.030  64.703  71.539  0.00  0.00    +0.000 A 
ATOM     11  C   UNL     1      59.671  65.429  71.697  0.00  0.00    +0.000 A 
ATOM     12  C   UNL     1      59.784  65.600  72.495  0.00  0.00    +0.000 A 
ATOM     13  C   UNL     1      60.213  64.980  72.831  0.00  0.00    +0.000 A 
ATOM     14  S   UNL     1      60.365  64.426  72.240  0.00  0.00    +0.000 S 
ATOM     15  C   UNL     1      60.793  63.248  71.389  0.00  0.00    +0.000 A 
ATOM     16  C   UNL     1      60.772  63.630  72.120  0.00  0.00    +0.000 A 
ATOM     17  C   UNL     1      61.134  63.283  72.776  0.00  0.00    +0.000 A 
ATOM     18  C   UNL     1      61.515  62.556  72.702  0.00  0.00    +0.000 A 
ATOM     19  C   UNL     1      61.535  62.174  71.971  0.00  0.00    +0.000 A 
ATOM     20  C   UNL     1      61.175  62.519  71.315  0.00  0.00    +0.000 A 
ENDROOT
TORSDOF 0
ENDMDL
MODEL 7
REMARK VINA RESULT:    -9.305      2.119      4.975
REMARK INTER + INTRA:          -9.305
REMARK INTER:                  -9.305
REMARK INTRA:                   0.000
REMARK UNBOUND:                 0.000
ROOT
REMARK  Name = thenalidine
REMARK                            x       y       z     vdW  Elec       q    Type
REMARK                         _______ _______ _______ _____ _____    ______ ____
ATOM      1  C   UNL     1      60.538  62.391  66.924  0.00  0.00    +0.000 C 
ATOM      2  N   UNL     1      60.763  62.635  67.679  0.00  0.00    +0.000 NA
ATOM      3  C   UNL     1      60.349  62.365  68.341  0.00  0.00    +0.000 C 
ATOM      4  C   UNL     1      60.574  62.608  69.096  0.00  0.00    +0.000 C 
ATOM      5  C   UNL     1      61.212  63.123  69.190  0.00  0.00    +0.000 C 
ATOM      6  C   UNL     1      61.625  63.393  68.530  0.00  0.00    +0.000 C 
ATOM      7  C   UNL     1      61.401  63.149  67.775  0.00  0.00    +0.000 C 
ATOM      8  N   UNL     1      61.437  63.366  69.946  0.00  0.00    +0.000 N 
ATOM      9  C   UNL     1      61.023  63.096  70.607  0.00  0.00    +0.000 C 
ATOM     10  C   UNL     1      61.248  63.340  71.363  0.00  0.00    +0.000 A 
ATOM     11  C   UNL     1      60.889  63.117  72.071  0.00  0.00    +0.000 A 
ATOM     12  C   UNL     1      61.290  63.489  72.688  0.00  0.00    +0.000 A 
ATOM     13  C   UNL     1      61.898  63.942  72.361  0.00  0.00    +0.000 A 
ATOM     14  S   UNL     1      61.872  63.850  71.542  0.00  0.00    +0.000 S 
ATOM     15  C   UNL     1      62.075  63.880  70.041  0.00  0.00    +0.000 A 
ATOM     16  C   UNL     1      62.300  64.124  70.796  0.00  0.00    +0.000 A 
ATOM     17  C   UNL     1      62.938  64.638  70.890  0.00  0.00    +0.000 A 
ATOM     18  C   UNL     1      63.352  64.909  70.230  0.00  0.00    +0.000 A 
ATOM     19  C   UNL     1      63.127  64.665  69.475  0.00  0.00    +0.000 A 
ATOM     20  C   UNL     1      62.489  64.151  69.380  0.00  0.00    +0.000 A 
ENDROOT
TORSDOF 0
ENDMDL
MODEL 8
REMARK VINA RESULT:    -9.216      1.750      3.915
REMARK INTER + INTRA:          -9.216
REMARK INTER:                  -9.216
REMARK INTRA:                   0.000
REMARK UNBOUND:                 0.000
ROOT
REMARK  Name = thenalidine
REMARK                            x       y       z     vdW  Elec       q    Type
REMARK                         _______ _______ _______ _____ _____    ______ ____
ATOM      1  C   UNL     1      61.586  62.510  65.306  0.00  0.00    +0.000 C 
ATOM      2  N   UNL     1      61.392  62.566  66.106  0.00  0.00    +0.000 NA
ATOM      3  C   UNL     1      61.359  61.885  66.572  0.00  0.00    +0.000 C 
ATOM      4  C   UNL     1      61.165  61.942  67.372  0.00  0.00    +0.000 C 
ATOM      5  C   UNL     1      61.004  62.679  67.706  0.00  0.00    +0.000 C 
ATOM      6  C   UNL     1      61.036  63.359  67.241  0.00  0.00    +0.000 C 
ATOM      7  C   UNL     1      61.230  63.302  66.441  0.00  0.00    +0.000 C 
ATOM      8  N   UNL     1      60.810  62.735  68.505  0.00  0.00    +0.000 N 
ATOM      9  C   UNL     1      60.777  62.054  68.971  0.00  0.00    +0.000 C 
ATOM     10  C   UNL     1      60.583  62.110  69.771  0.00  0.00    +0.000 A 
ATOM     11  C   UNL     1      60.529  61.482  70.303  0.00  0.00    +0.000 A 
ATOM     12  C   UNL     1      60.322  61.788  71.039  0.00  0.00    +0.000 A 
ATOM     13  C   UNL     1      60.247  62.606  70.964  0.00  0.00    +0.000 A 
ATOM     14  S   UNL     1      60.409  62.806  70.180  0.00  0.00    +0.000 S 
ATOM     15  C   UNL     1      60.648  63.471  68.840  0.00  0.00    +0.000 A 
ATOM     16  C   UNL     1      60.455  63.528  69.640  0.00  0.00    +0.000 A 
ATOM     17  C   UNL     1      60.293  64.265  69.974  0.00  0.00    +0.000 A 
ATOM     18  C   UNL     1      60.326  64.945  69.510  0.00  0.00    +0.000 A 
ATOM     19  C   UNL     1      60.520  64.888  68.710  0.00  0.00    +0.000 A 
ATOM     20  C   UNL     1      60.681  64.152  68.375  0.00  0.00    +0.000 A 
ENDROOT
TORSDOF 0
ENDMDL
MODEL 9
REMARK VINA RESULT:    -8.987      4.448      6.299
REMARK INTER + INTRA:          -8.987
REMARK INTER:                  -8.987
REMARK INTRA:                   0.000
REMARK UNBOUND:                 0.000
ROOT
REMARK  Name = thenalidine
REMARK                            x       y       z     vdW  Elec       q    Type
REMARK                         _______ _______ _______ _____ _____    ______ ____
ATOM      1  C   UNL     1      66.163  67.624  70.212  0.00  0.00    +0.000 C 
ATOM      2  N   UNL     1      65.530  67.126  70.391  0.00  0.00    +0.000 NA
ATOM      3  C   UNL     1      65.353  66.489  69.896  0.00  0.00    +0.000 C 
ATOM      4  C   UNL     1      64.720  65.991  70.074  0.00  0.00    +0.000 C 
ATOM      5  C   UNL     1      64.263  66.130  70.747  0.00  0.00    +0.000 C 
ATOM      6  C   UNL     1      64.439  66.766  71.241  0.00  0.00    +0.000 C 
ATOM      7  C   UNL     1      65.072  67.264  71.063  0.00  0.00    +0.000 C 
ATOM      8  N   UNL     1      63.630  65.632  70.926  0.00  0.00    +0.000 N 
ATOM      9  C   UNL     1      63.454  64.995  70.431  0.00  0.00    +0.000 C 
ATOM     10  C   UNL     1      62.821  64.497  70.610  0.00  0.00    +0.000 A 
ATOM     11  C   UNL     1      62.580  63.842  70.170  0.00  0.00    +0.000 A 
ATOM     12  C   UNL     1      61.928  63.507  70.548  0.00  0.00    +0.000 A 
ATOM     13  C   UNL     1      61.766  63.955  71.221  0.00  0.00    +0.000 A 
ATOM     14  S   UNL     1      62.317  64.567  71.260  0.00  0.00    +0.000 S 
ATOM     15  C   UNL     1      63.173  65.770  71.598  0.00  0.00    +0.000 A 
ATOM     16  C   UNL     1      62.540  65.272  71.777  0.00  0.00    +0.000 A 
ATOM     17  C   UNL     1      62.083  65.412  72.450  0.00  0.00    +0.000 A 
ATOM     18  C   UNL     1      62.259  66.048  72.944  0.00  0.00    +0.000 A 
ATOM     19  C   UNL     1      62.892  66.546  72.765  0.00  0.00    +0.000 A 
ATOM     20  C   UNL     1      63.349  66.407  72.093  0.00  0.00    +0.000 A 
ENDROOT
TORSDOF 0
ENDMDL
