MODEL 1
REMARK VINA RESULT:   -12.731      0.000      0.000
REMARK INTER + INTRA:         -12.731
REMARK INTER:                 -12.731
REMARK INTRA:                   0.000
REMARK UNBOUND:                 0.000
ROOT
REMARK  Name = thenium closylate
REMARK                            x       y       z     vdW  Elec       q    Type
REMARK                         _______ _______ _______ _____ _____    ______ ____
ATOM      1  O   UNL     1      62.946  66.509  72.610  0.00  0.00    +0.000 OA
ATOM      2  S   UNL     1      63.361  66.402  71.905  0.00  0.00    +0.000 S 
ATOM      3  O   UNL     1      63.961  66.895  72.184  0.00  0.00    +0.000 OA
ATOM      4  O   UNL     1      62.760  65.910  71.626  0.00  0.00    +0.000 OA
ATOM      5  C   UNL     1      63.776  66.295  71.200  0.00  0.00    +0.000 A 
ATOM      6  C   UNL     1      63.463  65.815  70.606  0.00  0.00    +0.000 A 
ATOM      7  C   UNL     1      63.878  65.708  69.901  0.00  0.00    +0.000 A 
ATOM      8  C   UNL     1      64.606  66.082  69.790  0.00  0.00    +0.000 A 
ATOM      9 CL   UNL     1      65.021  65.975  69.085  0.00  0.00    +0.000 Cl
ATOM     10  C   UNL     1      64.919  66.562  70.384  0.00  0.00    +0.000 A 
ATOM     11  C   UNL     1      64.504  66.669  71.089  0.00  0.00    +0.000 A 
REMARK  Name = thenium closylate
REMARK                            x       y       z     vdW  Elec       q    Type
REMARK                         _______ _______ _______ _____ _____    ______ ____
ATOM      1  C   UNL     1      61.416  63.420  68.215  0.00  0.00    +0.000 C 
ATOM      2  N   UNL     1      60.757  63.267  68.686  0.00  0.00    +0.000 N 
ATOM      3  C   UNL     1      60.097  63.113  69.158  0.00  0.00    +0.000 C 
ATOM      4  C   UNL     1      61.069  63.747  69.280  0.00  0.00    +0.000 C 
ATOM      5  C   UNL     1      60.654  63.854  69.985  0.00  0.00    +0.000 C 
ATOM      6  O   UNL     1      60.967  64.334  70.579  0.00  0.00    +0.000 OA
ATOM      7  C   UNL     1      60.552  64.440  71.284  0.00  0.00    +0.000 A 
ATOM      8  C   UNL     1      60.864  64.920  71.878  0.00  0.00    +0.000 A 
ATOM      9  C   UNL     1      60.449  65.027  72.583  0.00  0.00    +0.000 A 
ATOM     10  C   UNL     1      59.722  64.654  72.694  0.00  0.00    +0.000 A 
ATOM     11  C   UNL     1      59.409  64.174  72.100  0.00  0.00    +0.000 A 
ATOM     12  C   UNL     1      59.824  64.067  71.395  0.00  0.00    +0.000 A 
ATOM     13  C   UNL     1      60.444  62.787  68.092  0.00  0.00    +0.000 C 
ATOM     14  C   UNL     1      60.859  62.680  67.388  0.00  0.00    +0.000 A 
ATOM     15  C   UNL     1      60.617  62.219  66.748  0.00  0.00    +0.000 A 
ATOM     16  C   UNL     1      61.198  62.270  66.163  0.00  0.00    +0.000 A 
ATOM     17  C   UNL     1      61.798  62.762  66.442  0.00  0.00    +0.000 A 
ATOM     18  S   UNL     1      61.589  63.016  67.199  0.00  0.00    +0.000 S 
ENDROOT
TORSDOF 0
ENDMDL
MODEL 2
REMARK VINA RESULT:   -12.630      2.619      2.843
REMARK INTER + INTRA:         -12.630
REMARK INTER:                 -12.630
REMARK INTRA:                   0.000
REMARK UNBOUND:                 0.000
ROOT
REMARK  Name = thenium closylate
REMARK                            x       y       z     vdW  Elec       q    Type
REMARK                         _______ _______ _______ _____ _____    ______ ____
ATOM      1  O   UNL     1      60.848  66.016  72.883  0.00  0.00    +0.000 OA
ATOM      2  S   UNL     1      60.557  66.262  72.151  0.00  0.00    +0.000 S 
ATOM      3  O   UNL     1      60.472  67.029  72.443  0.00  0.00    +0.000 OA
ATOM      4  O   UNL     1      60.642  65.496  71.859  0.00  0.00    +0.000 OA
ATOM      5  C   UNL     1      60.266  66.509  71.420  0.00  0.00    +0.000 A 
ATOM      6  C   UNL     1      60.194  65.968  70.800  0.00  0.00    +0.000 A 
ATOM      7  C   UNL     1      59.904  66.215  70.068  0.00  0.00    +0.000 A 
ATOM      8  C   UNL     1      59.685  67.002  69.956  0.00  0.00    +0.000 A 
ATOM      9 CL   UNL     1      59.394  67.249  69.225  0.00  0.00    +0.000 Cl
ATOM     10  C   UNL     1      59.756  67.544  70.575  0.00  0.00    +0.000 A 
ATOM     11  C   UNL     1      60.047  67.297  71.307  0.00  0.00    +0.000 A 
REMARK  Name = thenium closylate
REMARK                            x       y       z     vdW  Elec       q    Type
REMARK                         _______ _______ _______ _____ _____    ______ ____
ATOM      1  C   UNL     1      60.112  62.899  68.306  0.00  0.00    +0.000 C 
ATOM      2  N   UNL     1      60.406  62.303  68.794  0.00  0.00    +0.000 N 
ATOM      3  C   UNL     1      60.700  61.705  69.281  0.00  0.00    +0.000 C 
ATOM      4  C   UNL     1      60.478  62.843  69.413  0.00  0.00    +0.000 C 
ATOM      5  C   UNL     1      60.769  62.597  70.144  0.00  0.00    +0.000 C 
ATOM      6  O   UNL     1      60.840  63.138  70.763  0.00  0.00    +0.000 OA
ATOM      7  C   UNL     1      61.131  62.891  71.495  0.00  0.00    +0.000 A 
ATOM      8  C   UNL     1      61.203  63.431  72.114  0.00  0.00    +0.000 A 
ATOM      9  C   UNL     1      61.494  63.185  72.845  0.00  0.00    +0.000 A 
ATOM     10  C   UNL     1      61.713  62.398  72.958  0.00  0.00    +0.000 A 
ATOM     11  C   UNL     1      61.641  61.856  72.339  0.00  0.00    +0.000 A 
ATOM     12  C   UNL     1      61.350  62.103  71.607  0.00  0.00    +0.000 A 
ATOM     13  C   UNL     1      60.334  61.762  68.175  0.00  0.00    +0.000 C 
ATOM     14  C   UNL     1      60.043  62.008  67.443  0.00  0.00    +0.000 A 
ATOM     15  C   UNL     1      59.941  61.533  66.777  0.00  0.00    +0.000 A 
ATOM     16  C   UNL     1      59.638  62.005  66.171  0.00  0.00    +0.000 A 
ATOM     17  C   UNL     1      59.553  62.772  66.463  0.00  0.00    +0.000 A 
ATOM     18  S   UNL     1      59.804  62.774  67.250  0.00  0.00    +0.000 S 
ENDROOT
TORSDOF 0
ENDMDL
MODEL 3
REMARK VINA RESULT:   -11.953      2.455      4.324
REMARK INTER + INTRA:         -11.953
REMARK INTER:                 -11.953
REMARK INTRA:                   0.000
REMARK UNBOUND:                 0.000
ROOT
REMARK  Name = thenium closylate
REMARK                            x       y       z     vdW  Elec       q    Type
REMARK                         _______ _______ _______ _____ _____    ______ ____
ATOM      1  O   UNL     1      64.058  63.804  70.400  0.00  0.00    +0.000 OA
ATOM      2  S   UNL     1      63.941  64.582  70.650  0.00  0.00    +0.000 S 
ATOM      3  O   UNL     1      64.729  64.755  70.478  0.00  0.00    +0.000 OA
ATOM      4  O   UNL     1      63.153  64.408  70.823  0.00  0.00    +0.000 OA
ATOM      5  C   UNL     1      63.825  65.359  70.901  0.00  0.00    +0.000 A 
ATOM      6  C   UNL     1      63.084  65.598  71.176  0.00  0.00    +0.000 A 
ATOM      7  C   UNL     1      62.967  66.375  71.426  0.00  0.00    +0.000 A 
ATOM      8  C   UNL     1      63.592  66.914  71.402  0.00  0.00    +0.000 A 
ATOM      9 CL   UNL     1      63.476  67.691  71.653  0.00  0.00    +0.000 Cl
ATOM     10  C   UNL     1      64.333  66.676  71.128  0.00  0.00    +0.000 A 
ATOM     11  C   UNL     1      64.450  65.898  70.877  0.00  0.00    +0.000 A 
REMARK  Name = thenium closylate
REMARK                            x       y       z     vdW  Elec       q    Type
REMARK                         _______ _______ _______ _____ _____    ______ ____
ATOM      1  C   UNL     1      59.338  66.061  72.356  0.00  0.00    +0.000 C 
ATOM      2  N   UNL     1      59.045  65.302  72.225  0.00  0.00    +0.000 N 
ATOM      3  C   UNL     1      58.751  64.541  72.094  0.00  0.00    +0.000 C 
ATOM      4  C   UNL     1      59.785  65.063  71.950  0.00  0.00    +0.000 C 
ATOM      5  C   UNL     1      59.901  64.285  71.700  0.00  0.00    +0.000 C 
ATOM      6  O   UNL     1      60.642  64.047  71.425  0.00  0.00    +0.000 OA
ATOM      7  C   UNL     1      60.759  63.270  71.175  0.00  0.00    +0.000 A 
ATOM      8  C   UNL     1      61.499  63.031  70.900  0.00  0.00    +0.000 A 
ATOM      9  C   UNL     1      61.615  62.253  70.650  0.00  0.00    +0.000 A 
ATOM     10  C   UNL     1      60.991  61.715  70.674  0.00  0.00    +0.000 A 
ATOM     11  C   UNL     1      60.250  61.953  70.948  0.00  0.00    +0.000 A 
ATOM     12  C   UNL     1      60.134  62.730  71.199  0.00  0.00    +0.000 A 
ATOM     13  C   UNL     1      58.304  65.540  72.499  0.00  0.00    +0.000 C 
ATOM     14  C   UNL     1      58.187  66.317  72.750  0.00  0.00    +0.000 A 
ATOM     15  C   UNL     1      57.482  66.634  73.036  0.00  0.00    +0.000 A 
ATOM     16  C   UNL     1      57.615  67.427  73.221  0.00  0.00    +0.000 A 
ATOM     17  C   UNL     1      58.403  67.601  73.049  0.00  0.00    +0.000 A 
ATOM     18  S   UNL     1      58.757  66.914  72.757  0.00  0.00    +0.000 S 
ENDROOT
TORSDOF 0
ENDMDL
MODEL 4
REMARK VINA RESULT:   -11.801      1.975      4.943
REMARK INTER + INTRA:         -11.801
REMARK INTER:                 -11.801
REMARK INTRA:                   0.000
REMARK UNBOUND:                 0.000
ROOT
REMARK  Name = thenium closylate
REMARK                            x       y       z     vdW  Elec       q    Type
REMARK                         _______ _______ _______ _____ _____    ______ ____
ATOM      1  O   UNL     1      60.038  61.626  69.592  0.00  0.00    +0.000 OA
ATOM      2  S   UNL     1      60.462  61.985  68.983  0.00  0.00    +0.000 S 
ATOM      3  O   UNL     1      60.057  61.526  68.430  0.00  0.00    +0.000 OA
ATOM      4  O   UNL     1      60.867  62.445  69.535  0.00  0.00    +0.000 OA
ATOM      5  C   UNL     1      60.886  62.345  68.373  0.00  0.00    +0.000 A 
ATOM      6  C   UNL     1      61.449  62.923  68.547  0.00  0.00    +0.000 A 
ATOM      7  C   UNL     1      61.873  63.283  67.937  0.00  0.00    +0.000 A 
ATOM      8  C   UNL     1      61.733  63.064  67.154  0.00  0.00    +0.000 A 
ATOM      9 CL   UNL     1      62.157  63.423  66.544  0.00  0.00    +0.000 Cl
ATOM     10  C   UNL     1      61.170  62.486  66.979  0.00  0.00    +0.000 A 
ATOM     11  C   UNL     1      60.747  62.127  67.589  0.00  0.00    +0.000 A 
REMARK  Name = thenium closylate
REMARK                            x       y       z     vdW  Elec       q    Type
REMARK                         _______ _______ _______ _____ _____    ______ ____
ATOM      1  C   UNL     1      63.959  65.575  70.065  0.00  0.00    +0.000 C 
ATOM      2  N   UNL     1      63.795  65.493  70.869  0.00  0.00    +0.000 N 
ATOM      3  C   UNL     1      63.630  65.412  71.674  0.00  0.00    +0.000 C 
ATOM      4  C   UNL     1      63.232  64.916  70.696  0.00  0.00    +0.000 C 
ATOM      5  C   UNL     1      62.808  64.556  71.306  0.00  0.00    +0.000 C 
ATOM      6  O   UNL     1      62.245  63.979  71.131  0.00  0.00    +0.000 OA
ATOM      7  C   UNL     1      61.821  63.619  71.741  0.00  0.00    +0.000 A 
ATOM      8  C   UNL     1      61.259  63.041  71.568  0.00  0.00    +0.000 A 
ATOM      9  C   UNL     1      60.835  62.682  72.178  0.00  0.00    +0.000 A 
ATOM     10  C   UNL     1      60.974  62.900  72.960  0.00  0.00    +0.000 A 
ATOM     11  C   UNL     1      61.537  63.478  73.135  0.00  0.00    +0.000 A 
ATOM     12  C   UNL     1      61.960  63.837  72.525  0.00  0.00    +0.000 A 
ATOM     13  C   UNL     1      64.358  66.071  71.043  0.00  0.00    +0.000 C 
ATOM     14  C   UNL     1      64.781  66.431  70.434  0.00  0.00    +0.000 A 
ATOM     15  C   UNL     1      65.358  67.013  70.522  0.00  0.00    +0.000 A 
ATOM     16  C   UNL     1      65.636  67.213  69.771  0.00  0.00    +0.000 A 
ATOM     17  C   UNL     1      65.231  66.754  69.218  0.00  0.00    +0.000 A 
ATOM     18  S   UNL     1      64.703  66.270  69.628  0.00  0.00    +0.000 S 
ENDROOT
TORSDOF 0
ENDMDL
MODEL 5
REMARK VINA RESULT:   -10.121     15.296     17.875
REMARK INTER + INTRA:         -10.121
REMARK INTER:                 -10.121
REMARK INTRA:                   0.000
REMARK UNBOUND:                 0.000
ROOT
REMARK  Name = thenium closylate
REMARK                            x       y       z     vdW  Elec       q    Type
REMARK                         _______ _______ _______ _____ _____    ______ ____
ATOM      1  O   UNL     1      62.225  64.378  54.904  0.00  0.00    +0.000 OA
ATOM      2  S   UNL     1      62.052  64.341  54.098  0.00  0.00    +0.000 S 
ATOM      3  O   UNL     1      61.994  63.519  54.148  0.00  0.00    +0.000 OA
ATOM      4  O   UNL     1      62.110  65.162  54.048  0.00  0.00    +0.000 OA
ATOM      5  C   UNL     1      61.880  64.304  53.292  0.00  0.00    +0.000 A 
ATOM      6  C   UNL     1      61.843  64.997  52.845  0.00  0.00    +0.000 A 
ATOM      7  C   UNL     1      61.671  64.960  52.039  0.00  0.00    +0.000 A 
ATOM      8  C   UNL     1      61.534  64.230  51.680  0.00  0.00    +0.000 A 
ATOM      9 CL   UNL     1      61.361  64.193  50.874  0.00  0.00    +0.000 Cl
ATOM     10  C   UNL     1      61.570  63.536  52.126  0.00  0.00    +0.000 A 
ATOM     11  C   UNL     1      61.743  63.573  52.932  0.00  0.00    +0.000 A 
REMARK  Name = thenium closylate
REMARK                            x       y       z     vdW  Elec       q    Type
REMARK                         _______ _______ _______ _____ _____    ______ ____
ATOM      1  C   UNL     1      61.828  68.649  51.326  0.00  0.00    +0.000 C 
ATOM      2  N   UNL     1      62.007  69.091  51.998  0.00  0.00    +0.000 N 
ATOM      3  C   UNL     1      62.186  69.534  52.672  0.00  0.00    +0.000 C 
ATOM      4  C   UNL     1      62.043  68.399  52.445  0.00  0.00    +0.000 C 
ATOM      5  C   UNL     1      62.216  68.436  53.251  0.00  0.00    +0.000 C 
ATOM      6  O   UNL     1      62.252  67.742  53.697  0.00  0.00    +0.000 OA
ATOM      7  C   UNL     1      62.425  67.779  54.503  0.00  0.00    +0.000 A 
ATOM      8  C   UNL     1      62.461  67.087  54.950  0.00  0.00    +0.000 A 
ATOM      9  C   UNL     1      62.634  67.124  55.756  0.00  0.00    +0.000 A 
ATOM     10  C   UNL     1      62.770  67.853  56.115  0.00  0.00    +0.000 A 
ATOM     11  C   UNL     1      62.734  68.547  55.669  0.00  0.00    +0.000 A 
ATOM     12  C   UNL     1      62.561  68.510  54.863  0.00  0.00    +0.000 A 
ATOM     13  C   UNL     1      61.971  69.784  51.552  0.00  0.00    +0.000 C 
ATOM     14  C   UNL     1      61.798  69.747  50.747  0.00  0.00    +0.000 A 
ATOM     15  C   UNL     1      61.743  70.390  50.232  0.00  0.00    +0.000 A 
ATOM     16  C   UNL     1      61.561  70.100  49.481  0.00  0.00    +0.000 A 
ATOM     17  C   UNL     1      61.503  69.279  49.531  0.00  0.00    +0.000 A 
ATOM     18  S   UNL     1      61.650  69.060  50.313  0.00  0.00    +0.000 S 
ENDROOT
TORSDOF 0
ENDMDL
MODEL 6
REMARK VINA RESULT:    -9.985     15.469     17.532
REMARK INTER + INTRA:          -9.985
REMARK INTER:                  -9.985
REMARK INTRA:                   0.000
REMARK UNBOUND:                 0.000
ROOT
REMARK  Name = thenium closylate
REMARK                            x       y       z     vdW  Elec       q    Type
REMARK                         _______ _______ _______ _____ _____    ______ ____
ATOM      1  O   UNL     1      62.151  69.979  52.584  0.00  0.00    +0.000 OA
ATOM      2  S   UNL     1      61.992  69.449  51.972  0.00  0.00    +0.000 S 
ATOM      3  O   UNL     1      61.916  70.079  51.445  0.00  0.00    +0.000 OA
ATOM      4  O   UNL     1      62.068  68.818  52.499  0.00  0.00    +0.000 OA
ATOM      5  C   UNL     1      61.834  68.919  51.360  0.00  0.00    +0.000 A 
ATOM      6  C   UNL     1      61.820  68.107  51.511  0.00  0.00    +0.000 A 
ATOM      7  C   UNL     1      61.661  67.576  50.899  0.00  0.00    +0.000 A 
ATOM      8  C   UNL     1      61.516  67.858  50.137  0.00  0.00    +0.000 A 
ATOM      9 CL   UNL     1      61.358  67.328  49.525  0.00  0.00    +0.000 Cl
ATOM     10  C   UNL     1      61.530  68.669  49.986  0.00  0.00    +0.000 A 
ATOM     11  C   UNL     1      61.688  69.199  50.598  0.00  0.00    +0.000 A 
REMARK  Name = thenium closylate
REMARK                            x       y       z     vdW  Elec       q    Type
REMARK                         _______ _______ _______ _____ _____    ______ ____
ATOM      1  C   UNL     1      61.909  64.408  52.909  0.00  0.00    +0.000 C 
ATOM      2  N   UNL     1      62.084  64.553  53.702  0.00  0.00    +0.000 N 
ATOM      3  C   UNL     1      62.259  64.697  54.496  0.00  0.00    +0.000 C 
ATOM      4  C   UNL     1      62.097  65.364  53.552  0.00  0.00    +0.000 C 
ATOM      5  C   UNL     1      62.256  65.894  54.164  0.00  0.00    +0.000 C 
ATOM      6  O   UNL     1      62.270  66.705  54.013  0.00  0.00    +0.000 OA
ATOM      7  C   UNL     1      62.428  67.235  54.625  0.00  0.00    +0.000 A 
ATOM      8  C   UNL     1      62.442  68.046  54.475  0.00  0.00    +0.000 A 
ATOM      9  C   UNL     1      62.600  68.577  55.087  0.00  0.00    +0.000 A 
ATOM     10  C   UNL     1      62.745  68.296  55.848  0.00  0.00    +0.000 A 
ATOM     11  C   UNL     1      62.732  67.485  55.999  0.00  0.00    +0.000 A 
ATOM     12  C   UNL     1      62.573  66.954  55.387  0.00  0.00    +0.000 A 
ATOM     13  C   UNL     1      62.070  63.741  53.853  0.00  0.00    +0.000 C 
ATOM     14  C   UNL     1      61.912  63.211  53.241  0.00  0.00    +0.000 A 
ATOM     15  C   UNL     1      61.880  62.390  53.307  0.00  0.00    +0.000 A 
ATOM     16  C   UNL     1      61.705  62.080  52.562  0.00  0.00    +0.000 A 
ATOM     17  C   UNL     1      61.629  62.710  52.035  0.00  0.00    +0.000 A 
ATOM     18  S   UNL     1      61.757  63.410  52.455  0.00  0.00    +0.000 S 
ENDROOT
TORSDOF 0
ENDMDL
MODEL 7
REMARK VINA RESULT:    -9.914     14.856     16.966
REMARK INTER + INTRA:          -9.914
REMARK INTER:                  -9.914
REMARK INTRA:                   0.000
REMARK UNBOUND:                 0.000
ROOT
REMARK  Name = thenium closylate
REMARK                            x       y       z     vdW  Elec       q    Type
REMARK                         _______ _______ _______ _____ _____    ______ ____
ATOM      1  O   UNL     1      62.013  70.456  54.049  0.00  0.00    +0.000 OA
ATOM      2  S   UNL     1      62.161  69.893  54.634  0.00  0.00    +0.000 S 
ATOM      3  O   UNL     1      62.245  70.496  55.192  0.00  0.00    +0.000 OA
ATOM      4  O   UNL     1      62.076  69.291  54.077  0.00  0.00    +0.000 OA
ATOM      5  C   UNL     1      62.309  69.331  55.220  0.00  0.00    +0.000 A 
ATOM      6  C   UNL     1      62.310  68.528  55.030  0.00  0.00    +0.000 A 
ATOM      7  C   UNL     1      62.458  67.966  55.616  0.00  0.00    +0.000 A 
ATOM      8  C   UNL     1      62.605  68.207  56.391  0.00  0.00    +0.000 A 
ATOM      9 CL   UNL     1      62.753  67.645  56.976  0.00  0.00    +0.000 Cl
ATOM     10  C   UNL     1      62.604  69.010  56.581  0.00  0.00    +0.000 A 
ATOM     11  C   UNL     1      62.456  69.572  55.996  0.00  0.00    +0.000 A 
REMARK  Name = thenium closylate
REMARK                            x       y       z     vdW  Elec       q    Type
REMARK                         _______ _______ _______ _____ _____    ______ ____
ATOM      1  C   UNL     1      62.165  64.904  53.452  0.00  0.00    +0.000 C 
ATOM      2  N   UNL     1      61.995  65.090  52.667  0.00  0.00    +0.000 N 
ATOM      3  C   UNL     1      61.824  65.275  51.881  0.00  0.00    +0.000 C 
ATOM      4  C   UNL     1      61.994  65.893  52.856  0.00  0.00    +0.000 C 
ATOM      5  C   UNL     1      61.846  66.455  52.271  0.00  0.00    +0.000 C 
ATOM      6  O   UNL     1      61.845  67.258  52.461  0.00  0.00    +0.000 OA
ATOM      7  C   UNL     1      61.697  67.820  51.876  0.00  0.00    +0.000 A 
ATOM      8  C   UNL     1      61.697  68.623  52.065  0.00  0.00    +0.000 A 
ATOM      9  C   UNL     1      61.549  69.185  51.479  0.00  0.00    +0.000 A 
ATOM     10  C   UNL     1      61.402  68.944  50.705  0.00  0.00    +0.000 A 
ATOM     11  C   UNL     1      61.402  68.141  50.514  0.00  0.00    +0.000 A 
ATOM     12  C   UNL     1      61.550  67.579  51.100  0.00  0.00    +0.000 A 
ATOM     13  C   UNL     1      61.995  64.287  52.476  0.00  0.00    +0.000 C 
ATOM     14  C   UNL     1      62.143  63.725  53.062  0.00  0.00    +0.000 A 
ATOM     15  C   UNL     1      62.162  62.907  52.956  0.00  0.00    +0.000 A 
ATOM     16  C   UNL     1      62.329  62.559  53.685  0.00  0.00    +0.000 A 
ATOM     17  C   UNL     1      62.413  63.161  54.242  0.00  0.00    +0.000 A 
ATOM     18  S   UNL     1      62.299  63.882  53.857  0.00  0.00    +0.000 S 
ENDROOT
TORSDOF 0
ENDMDL
