MODEL 1
REMARK VINA RESULT:   -10.345      0.000      0.000
REMARK INTER + INTRA:         -10.345
REMARK INTER:                 -10.345
REMARK INTRA:                   0.000
REMARK UNBOUND:                 0.000
ROOT
REMARK  Name = thiazinam
REMARK                            x       y       z     vdW  Elec       q    Type
REMARK                         _______ _______ _______ _____ _____    ______ ____
ATOM      1  C   UNL     1      60.255  62.960  67.647  0.00  0.00    +0.000 C 
ATOM      2  C   UNL     1      61.053  63.157  67.589  0.00  0.00    +0.000 C 
ATOM      3  C   UNL     1      61.489  62.926  66.929  0.00  0.00    +0.000 C 
ATOM      4  N   UNL     1      61.126  62.496  66.324  0.00  0.00    +0.000 N 
ATOM      5  C   UNL     1      61.563  62.265  65.664  0.00  0.00    +0.000 A 
ATOM      6  C   UNL     1      62.361  62.462  65.606  0.00  0.00    +0.000 A 
ATOM      7  C   UNL     1      62.798  62.231  64.945  0.00  0.00    +0.000 A 
ATOM      8  C   UNL     1      62.435  61.801  64.342  0.00  0.00    +0.000 A 
ATOM      9  C   UNL     1      61.635  61.603  64.399  0.00  0.00    +0.000 A 
ATOM     10  C   UNL     1      61.200  61.835  65.060  0.00  0.00    +0.000 A 
ATOM     11  S   UNL     1      60.400  61.637  65.117  0.00  0.00    +0.000 S 
ATOM     12  C   UNL     1      59.965  61.869  65.778  0.00  0.00    +0.000 A 
ATOM     13  C   UNL     1      60.328  62.298  66.382  0.00  0.00    +0.000 A 
ATOM     14  C   UNL     1      59.892  62.530  67.042  0.00  0.00    +0.000 A 
ATOM     15  C   UNL     1      59.093  62.332  67.100  0.00  0.00    +0.000 A 
ATOM     16  C   UNL     1      58.730  61.903  66.496  0.00  0.00    +0.000 A 
ATOM     17  C   UNL     1      59.166  61.671  65.835  0.00  0.00    +0.000 A 
ATOM     18  N   UNL     1      61.416  63.587  68.193  0.00  0.00    +0.000 N 
ATOM     19  C   UNL     1      61.779  64.017  68.797  0.00  0.00    +0.000 C 
ATOM     20  C   UNL     1      60.703  63.607  68.608  0.00  0.00    +0.000 C 
ATOM     21  C   UNL     1      62.129  63.567  67.778  0.00  0.00    +0.000 C 
ENDROOT
TORSDOF 0
ENDMDL
MODEL 2
REMARK VINA RESULT:   -10.189      2.239      4.305
REMARK INTER + INTRA:         -10.189
REMARK INTER:                 -10.189
REMARK INTRA:                   0.000
REMARK UNBOUND:                 0.000
ROOT
REMARK  Name = thiazinam
REMARK                            x       y       z     vdW  Elec       q    Type
REMARK                         _______ _______ _______ _____ _____    ______ ____
ATOM      1  C   UNL     1      60.532  62.225  68.864  0.00  0.00    +0.000 C 
ATOM      2  C   UNL     1      60.921  62.751  68.362  0.00  0.00    +0.000 C 
ATOM      3  C   UNL     1      61.465  63.289  68.670  0.00  0.00    +0.000 C 
ATOM      4  N   UNL     1      61.620  63.300  69.481  0.00  0.00    +0.000 N 
ATOM      5  C   UNL     1      62.165  63.839  69.788  0.00  0.00    +0.000 A 
ATOM      6  C   UNL     1      62.554  64.365  69.287  0.00  0.00    +0.000 A 
ATOM      7  C   UNL     1      63.098  64.903  69.594  0.00  0.00    +0.000 A 
ATOM      8  C   UNL     1      63.254  64.915  70.404  0.00  0.00    +0.000 A 
ATOM      9  C   UNL     1      62.865  64.388  70.907  0.00  0.00    +0.000 A 
ATOM     10  C   UNL     1      62.320  63.850  70.598  0.00  0.00    +0.000 A 
ATOM     11  S   UNL     1      61.931  63.323  71.101  0.00  0.00    +0.000 S 
ATOM     12  C   UNL     1      61.387  62.786  70.793  0.00  0.00    +0.000 A 
ATOM     13  C   UNL     1      61.232  62.774  69.983  0.00  0.00    +0.000 A 
ATOM     14  C   UNL     1      60.688  62.236  69.675  0.00  0.00    +0.000 A 
ATOM     15  C   UNL     1      60.298  61.710  70.177  0.00  0.00    +0.000 A 
ATOM     16  C   UNL     1      60.454  61.721  70.987  0.00  0.00    +0.000 A 
ATOM     17  C   UNL     1      60.999  62.260  71.295  0.00  0.00    +0.000 A 
ATOM     18  N   UNL     1      60.765  62.739  67.552  0.00  0.00    +0.000 N 
ATOM     19  C   UNL     1      60.610  62.728  66.742  0.00  0.00    +0.000 C 
ATOM     20  C   UNL     1      60.226  62.125  67.664  0.00  0.00    +0.000 C 
ATOM     21  C   UNL     1      61.304  63.354  67.440  0.00  0.00    +0.000 C 
ENDROOT
TORSDOF 0
ENDMDL
MODEL 3
REMARK VINA RESULT:   -10.168      3.060      4.792
REMARK INTER + INTRA:         -10.168
REMARK INTER:                 -10.168
REMARK INTRA:                   0.000
REMARK UNBOUND:                 0.000
ROOT
REMARK  Name = thiazinam
REMARK                            x       y       z     vdW  Elec       q    Type
REMARK                         _______ _______ _______ _____ _____    ______ ____
ATOM      1  C   UNL     1      62.321  64.582  71.329  0.00  0.00    +0.000 C 
ATOM      2  C   UNL     1      62.334  64.693  70.512  0.00  0.00    +0.000 C 
ATOM      3  C   UNL     1      61.953  64.157  70.016  0.00  0.00    +0.000 C 
ATOM      4  N   UNL     1      61.557  63.507  70.338  0.00  0.00    +0.000 N 
ATOM      5  C   UNL     1      61.175  62.969  69.842  0.00  0.00    +0.000 A 
ATOM      6  C   UNL     1      61.188  63.081  69.025  0.00  0.00    +0.000 A 
ATOM      7  C   UNL     1      60.806  62.544  68.528  0.00  0.00    +0.000 A 
ATOM      8  C   UNL     1      60.412  61.894  68.850  0.00  0.00    +0.000 A 
ATOM      9  C   UNL     1      60.398  61.783  69.668  0.00  0.00    +0.000 A 
ATOM     10  C   UNL     1      60.780  62.320  70.163  0.00  0.00    +0.000 A 
ATOM     11  S   UNL     1      60.767  62.208  70.981  0.00  0.00    +0.000 S 
ATOM     12  C   UNL     1      61.149  62.746  71.476  0.00  0.00    +0.000 A 
ATOM     13  C   UNL     1      61.544  63.395  71.155  0.00  0.00    +0.000 A 
ATOM     14  C   UNL     1      61.926  63.932  71.651  0.00  0.00    +0.000 A 
ATOM     15  C   UNL     1      61.913  63.821  72.468  0.00  0.00    +0.000 A 
ATOM     16  C   UNL     1      61.518  63.172  72.790  0.00  0.00    +0.000 A 
ATOM     17  C   UNL     1      61.136  62.634  72.293  0.00  0.00    +0.000 A 
ATOM     18  N   UNL     1      62.729  65.343  70.191  0.00  0.00    +0.000 N 
ATOM     19  C   UNL     1      63.124  65.992  69.869  0.00  0.00    +0.000 C 
ATOM     20  C   UNL     1      62.942  65.588  70.949  0.00  0.00    +0.000 C 
ATOM     21  C   UNL     1      62.516  65.097  69.433  0.00  0.00    +0.000 C 
ENDROOT
TORSDOF 0
ENDMDL
MODEL 4
REMARK VINA RESULT:   -10.157      3.273      4.965
REMARK INTER + INTRA:         -10.157
REMARK INTER:                 -10.157
REMARK INTRA:                   0.000
REMARK UNBOUND:                 0.000
ROOT
REMARK  Name = thiazinam
REMARK                            x       y       z     vdW  Elec       q    Type
REMARK                         _______ _______ _______ _____ _____    ______ ____
ATOM      1  C   UNL     1      60.113  64.177  69.291  0.00  0.00    +0.000 C 
ATOM      2  C   UNL     1      60.197  64.690  69.931  0.00  0.00    +0.000 C 
ATOM      3  C   UNL     1      60.492  64.411  70.648  0.00  0.00    +0.000 C 
ATOM      4  N   UNL     1      60.704  63.616  70.726  0.00  0.00    +0.000 N 
ATOM      5  C   UNL     1      60.999  63.337  71.444  0.00  0.00    +0.000 A 
ATOM      6  C   UNL     1      61.083  63.850  72.084  0.00  0.00    +0.000 A 
ATOM      7  C   UNL     1      61.378  63.571  72.802  0.00  0.00    +0.000 A 
ATOM      8  C   UNL     1      61.590  62.777  72.879  0.00  0.00    +0.000 A 
ATOM      9  C   UNL     1      61.506  62.263  72.239  0.00  0.00    +0.000 A 
ATOM     10  C   UNL     1      61.211  62.543  71.522  0.00  0.00    +0.000 A 
ATOM     11  S   UNL     1      61.127  62.029  70.881  0.00  0.00    +0.000 S 
ATOM     12  C   UNL     1      60.832  62.310  70.164  0.00  0.00    +0.000 A 
ATOM     13  C   UNL     1      60.620  63.103  70.086  0.00  0.00    +0.000 A 
ATOM     14  C   UNL     1      60.325  63.383  69.369  0.00  0.00    +0.000 A 
ATOM     15  C   UNL     1      60.241  62.869  68.728  0.00  0.00    +0.000 A 
ATOM     16  C   UNL     1      60.453  62.076  68.806  0.00  0.00    +0.000 A 
ATOM     17  C   UNL     1      60.749  61.795  69.524  0.00  0.00    +0.000 A 
ATOM     18  N   UNL     1      59.985  65.484  69.853  0.00  0.00    +0.000 N 
ATOM     19  C   UNL     1      59.773  66.278  69.776  0.00  0.00    +0.000 C 
ATOM     20  C   UNL     1      59.766  65.349  69.069  0.00  0.00    +0.000 C 
ATOM     21  C   UNL     1      60.204  65.619  70.637  0.00  0.00    +0.000 C 
ENDROOT
TORSDOF 0
ENDMDL
MODEL 5
REMARK VINA RESULT:    -9.839      2.871      5.166
REMARK INTER + INTRA:          -9.839
REMARK INTER:                  -9.839
REMARK INTRA:                   0.000
REMARK UNBOUND:                 0.000
ROOT
REMARK  Name = thiazinam
REMARK                            x       y       z     vdW  Elec       q    Type
REMARK                         _______ _______ _______ _____ _____    ______ ____
ATOM      1  C   UNL     1      60.104  63.864  68.995  0.00  0.00    +0.000 C 
ATOM      2  C   UNL     1      60.395  63.102  69.109  0.00  0.00    +0.000 C 
ATOM      3  C   UNL     1      60.670  62.871  69.851  0.00  0.00    +0.000 C 
ATOM      4  N   UNL     1      60.654  63.405  70.481  0.00  0.00    +0.000 N 
ATOM      5  C   UNL     1      60.930  63.174  71.224  0.00  0.00    +0.000 A 
ATOM      6  C   UNL     1      61.221  62.411  71.337  0.00  0.00    +0.000 A 
ATOM      7  C   UNL     1      61.497  62.180  72.080  0.00  0.00    +0.000 A 
ATOM      8  C   UNL     1      61.481  62.713  72.709  0.00  0.00    +0.000 A 
ATOM      9  C   UNL     1      61.190  63.477  72.596  0.00  0.00    +0.000 A 
ATOM     10  C   UNL     1      60.915  63.707  71.853  0.00  0.00    +0.000 A 
ATOM     11  S   UNL     1      60.623  64.471  71.740  0.00  0.00    +0.000 S 
ATOM     12  C   UNL     1      60.348  64.701  70.997  0.00  0.00    +0.000 A 
ATOM     13  C   UNL     1      60.363  64.168  70.368  0.00  0.00    +0.000 A 
ATOM     14  C   UNL     1      60.088  64.398  69.626  0.00  0.00    +0.000 A 
ATOM     15  C   UNL     1      59.797  65.162  69.512  0.00  0.00    +0.000 A 
ATOM     16  C   UNL     1      59.781  65.695  70.141  0.00  0.00    +0.000 A 
ATOM     17  C   UNL     1      60.057  65.464  70.885  0.00  0.00    +0.000 A 
ATOM     18  N   UNL     1      60.410  62.568  68.479  0.00  0.00    +0.000 N 
ATOM     19  C   UNL     1      60.426  62.035  67.850  0.00  0.00    +0.000 C 
ATOM     20  C   UNL     1      60.083  63.142  67.985  0.00  0.00    +0.000 C 
ATOM     21  C   UNL     1      60.737  61.995  68.974  0.00  0.00    +0.000 C 
ENDROOT
TORSDOF 0
ENDMDL
MODEL 6
REMARK VINA RESULT:    -9.724      5.347      6.692
REMARK INTER + INTRA:          -9.724
REMARK INTER:                  -9.724
REMARK INTRA:                   0.000
REMARK UNBOUND:                 0.000
ROOT
REMARK  Name = thiazinam
REMARK                            x       y       z     vdW  Elec       q    Type
REMARK                         _______ _______ _______ _____ _____    ______ ____
ATOM      1  C   UNL     1      63.575  66.048  71.059  0.00  0.00    +0.000 C 
ATOM      2  C   UNL     1      63.600  65.309  70.696  0.00  0.00    +0.000 C 
ATOM      3  C   UNL     1      63.097  64.707  70.950  0.00  0.00    +0.000 C 
ATOM      4  N   UNL     1      62.567  64.846  71.569  0.00  0.00    +0.000 N 
ATOM      5  C   UNL     1      62.064  64.243  71.823  0.00  0.00    +0.000 A 
ATOM      6  C   UNL     1      62.089  63.504  71.460  0.00  0.00    +0.000 A 
ATOM      7  C   UNL     1      61.585  62.901  71.714  0.00  0.00    +0.000 A 
ATOM      8  C   UNL     1      61.057  63.039  72.332  0.00  0.00    +0.000 A 
ATOM      9  C   UNL     1      61.032  63.780  72.696  0.00  0.00    +0.000 A 
ATOM     10  C   UNL     1      61.535  64.382  72.441  0.00  0.00    +0.000 A 
ATOM     11  S   UNL     1      61.510  65.122  72.805  0.00  0.00    +0.000 S 
ATOM     12  C   UNL     1      62.014  65.724  72.550  0.00  0.00    +0.000 A 
ATOM     13  C   UNL     1      62.543  65.585  71.932  0.00  0.00    +0.000 A 
ATOM     14  C   UNL     1      63.046  66.187  71.678  0.00  0.00    +0.000 A 
ATOM     15  C   UNL     1      63.021  66.927  72.041  0.00  0.00    +0.000 A 
ATOM     16  C   UNL     1      62.493  67.066  72.659  0.00  0.00    +0.000 A 
ATOM     17  C   UNL     1      61.988  66.463  72.914  0.00  0.00    +0.000 A 
ATOM     18  N   UNL     1      64.128  65.170  70.078  0.00  0.00    +0.000 N 
ATOM     19  C   UNL     1      64.657  65.032  69.460  0.00  0.00    +0.000 C 
ATOM     20  C   UNL     1      64.405  65.945  70.141  0.00  0.00    +0.000 C 
ATOM     21  C   UNL     1      63.852  64.396  70.015  0.00  0.00    +0.000 C 
ENDROOT
TORSDOF 0
ENDMDL
MODEL 7
REMARK VINA RESULT:    -9.715      5.366      6.703
REMARK INTER + INTRA:          -9.715
REMARK INTER:                  -9.715
REMARK INTRA:                   0.000
REMARK UNBOUND:                 0.000
ROOT
REMARK  Name = thiazinam
REMARK                            x       y       z     vdW  Elec       q    Type
REMARK                         _______ _______ _______ _____ _____    ______ ____
ATOM      1  C   UNL     1      63.301  66.532  71.686  0.00  0.00    +0.000 C 
ATOM      2  C   UNL     1      62.710  66.493  72.259  0.00  0.00    +0.000 C 
ATOM      3  C   UNL     1      62.274  65.800  72.355  0.00  0.00    +0.000 C 
ATOM      4  N   UNL     1      62.430  65.145  71.876  0.00  0.00    +0.000 N 
ATOM      5  C   UNL     1      61.993  64.451  71.972  0.00  0.00    +0.000 A 
ATOM      6  C   UNL     1      61.401  64.412  72.545  0.00  0.00    +0.000 A 
ATOM      7  C   UNL     1      60.965  63.718  72.641  0.00  0.00    +0.000 A 
ATOM      8  C   UNL     1      61.120  63.064  72.163  0.00  0.00    +0.000 A 
ATOM      9  C   UNL     1      61.713  63.103  71.589  0.00  0.00    +0.000 A 
ATOM     10  C   UNL     1      62.149  63.797  71.494  0.00  0.00    +0.000 A 
ATOM     11  S   UNL     1      62.741  63.836  70.921  0.00  0.00    +0.000 S 
ATOM     12  C   UNL     1      63.177  64.530  70.826  0.00  0.00    +0.000 A 
ATOM     13  C   UNL     1      63.021  65.184  71.303  0.00  0.00    +0.000 A 
ATOM     14  C   UNL     1      63.457  65.877  71.208  0.00  0.00    +0.000 A 
ATOM     15  C   UNL     1      64.050  65.917  70.635  0.00  0.00    +0.000 A 
ATOM     16  C   UNL     1      64.205  65.263  70.157  0.00  0.00    +0.000 A 
ATOM     17  C   UNL     1      63.769  64.569  70.252  0.00  0.00    +0.000 A 
ATOM     18  N   UNL     1      62.554  67.147  72.737  0.00  0.00    +0.000 N 
ATOM     19  C   UNL     1      62.398  67.801  73.215  0.00  0.00    +0.000 C 
ATOM     20  C   UNL     1      63.148  67.570  72.351  0.00  0.00    +0.000 C 
ATOM     21  C   UNL     1      61.960  66.724  73.123  0.00  0.00    +0.000 C 
ENDROOT
TORSDOF 0
ENDMDL
MODEL 8
REMARK VINA RESULT:    -9.639      4.019      5.665
REMARK INTER + INTRA:          -9.639
REMARK INTER:                  -9.639
REMARK INTRA:                   0.000
REMARK UNBOUND:                 0.000
ROOT
REMARK  Name = thiazinam
REMARK                            x       y       z     vdW  Elec       q    Type
REMARK                         _______ _______ _______ _____ _____    ______ ____
ATOM      1  C   UNL     1      59.555  65.687  71.055  0.00  0.00    +0.000 C 
ATOM      2  C   UNL     1      59.716  65.539  71.849  0.00  0.00    +0.000 C 
ATOM      3  C   UNL     1      60.132  64.861  72.067  0.00  0.00    +0.000 C 
ATOM      4  N   UNL     1      60.388  64.331  71.489  0.00  0.00    +0.000 N 
ATOM      5  C   UNL     1      60.805  63.653  71.707  0.00  0.00    +0.000 A 
ATOM      6  C   UNL     1      60.966  63.505  72.502  0.00  0.00    +0.000 A 
ATOM      7  C   UNL     1      61.382  62.827  72.720  0.00  0.00    +0.000 A 
ATOM      8  C   UNL     1      61.638  62.297  72.142  0.00  0.00    +0.000 A 
ATOM      9  C   UNL     1      61.478  62.445  71.346  0.00  0.00    +0.000 A 
ATOM     10  C   UNL     1      61.061  63.123  71.129  0.00  0.00    +0.000 A 
ATOM     11  S   UNL     1      60.901  63.271  70.333  0.00  0.00    +0.000 S 
ATOM     12  C   UNL     1      60.484  63.949  70.116  0.00  0.00    +0.000 A 
ATOM     13  C   UNL     1      60.228  64.479  70.694  0.00  0.00    +0.000 A 
ATOM     14  C   UNL     1      59.812  65.156  70.476  0.00  0.00    +0.000 A 
ATOM     15  C   UNL     1      59.651  65.305  69.680  0.00  0.00    +0.000 A 
ATOM     16  C   UNL     1      59.907  64.774  69.102  0.00  0.00    +0.000 A 
ATOM     17  C   UNL     1      60.324  64.096  69.320  0.00  0.00    +0.000 A 
ATOM     18  N   UNL     1      59.459  66.069  72.427  0.00  0.00    +0.000 N 
ATOM     19  C   UNL     1      59.203  66.599  73.005  0.00  0.00    +0.000 C 
ATOM     20  C   UNL     1      59.126  66.546  71.842  0.00  0.00    +0.000 C 
ATOM     21  C   UNL     1      59.793  65.592  73.012  0.00  0.00    +0.000 C 
ENDROOT
TORSDOF 0
ENDMDL
MODEL 9
REMARK VINA RESULT:    -9.434      2.943      4.608
REMARK INTER + INTRA:          -9.434
REMARK INTER:                  -9.434
REMARK INTRA:                   0.000
REMARK UNBOUND:                 0.000
ROOT
REMARK  Name = thiazinam
REMARK                            x       y       z     vdW  Elec       q    Type
REMARK                         _______ _______ _______ _____ _____    ______ ____
ATOM      1  C   UNL     1      61.076  62.358  70.662  0.00  0.00    +0.000 C 
ATOM      2  C   UNL     1      61.079  62.952  71.233  0.00  0.00    +0.000 C 
ATOM      3  C   UNL     1      60.813  63.708  71.044  0.00  0.00    +0.000 C 
ATOM      4  N   UNL     1      60.543  63.871  70.280  0.00  0.00    +0.000 N 
ATOM      5  C   UNL     1      60.276  64.629  70.091  0.00  0.00    +0.000 A 
ATOM      6  C   UNL     1      60.279  65.223  70.663  0.00  0.00    +0.000 A 
ATOM      7  C   UNL     1      60.013  65.981  70.473  0.00  0.00    +0.000 A 
ATOM      8  C   UNL     1      59.743  66.144  69.711  0.00  0.00    +0.000 A 
ATOM      9  C   UNL     1      59.739  65.549  69.138  0.00  0.00    +0.000 A 
ATOM     10  C   UNL     1      60.006  64.792  69.329  0.00  0.00    +0.000 A 
ATOM     11  S   UNL     1      60.003  64.197  68.756  0.00  0.00    +0.000 S 
ATOM     12  C   UNL     1      60.269  63.440  68.946  0.00  0.00    +0.000 A 
ATOM     13  C   UNL     1      60.539  63.277  69.709  0.00  0.00    +0.000 A 
ATOM     14  C   UNL     1      60.806  62.521  69.899  0.00  0.00    +0.000 A 
ATOM     15  C   UNL     1      60.803  61.926  69.327  0.00  0.00    +0.000 A 
ATOM     16  C   UNL     1      60.533  62.089  68.564  0.00  0.00    +0.000 A 
ATOM     17  C   UNL     1      60.266  62.847  68.374  0.00  0.00    +0.000 A 
ATOM     18  N   UNL     1      61.350  62.789  71.996  0.00  0.00    +0.000 N 
ATOM     19  C   UNL     1      61.620  62.626  72.758  0.00  0.00    +0.000 C 
ATOM     20  C   UNL     1      61.502  62.008  71.775  0.00  0.00    +0.000 C 
ATOM     21  C   UNL     1      61.198  63.569  72.216  0.00  0.00    +0.000 C 
ENDROOT
TORSDOF 0
ENDMDL
