MODEL 1
REMARK VINA RESULT:    -5.564      0.000      0.000
REMARK INTER + INTRA:          -5.564
REMARK INTER:                  -5.564
REMARK INTRA:                   0.000
REMARK UNBOUND:                 0.000
ROOT
REMARK  Name = thioguanine
REMARK                            x       y       z     vdW  Elec       q    Type
REMARK                         _______ _______ _______ _____ _____    ______ ____
ATOM      1  N   UNL     1      62.758  61.997  63.452  0.00  0.00    +0.000 NA
ATOM      2  C   UNL     1      62.253  61.956  64.103  0.00  0.00    +0.000 A 
ATOM      3  N   UNL     1      62.418  62.394  64.781  0.00  0.00    +0.000 NA
ATOM      4  C   UNL     1      61.912  62.353  65.432  0.00  0.00    +0.000 A 
ATOM      5  C   UNL     1      61.241  61.873  65.404  0.00  0.00    +0.000 A 
ATOM      6  N   UNL     1      60.847  61.943  66.125  0.00  0.00    +0.000 NA
ATOM      7  C   UNL     1      61.274  62.465  66.599  0.00  0.00    +0.000 A 
ATOM      8  N   UNL     1      61.932  62.718  66.171  0.00  0.00    +0.000 NA
ATOM      9  C   UNL     1      61.076  61.434  64.724  0.00  0.00    +0.000 A 
ATOM     10  S   UNL     1      60.405  60.955  64.695  0.00  0.00    +0.000 S 
ATOM     11  N   UNL     1      61.582  61.476  64.074  0.00  0.00    +0.000 NA
ENDROOT
TORSDOF 0
ENDMDL
MODEL 2
REMARK VINA RESULT:    -5.539      1.473      2.114
REMARK INTER + INTRA:          -5.539
REMARK INTER:                  -5.539
REMARK INTRA:                   0.000
REMARK UNBOUND:                 0.000
ROOT
REMARK  Name = thioguanine
REMARK                            x       y       z     vdW  Elec       q    Type
REMARK                         _______ _______ _______ _____ _____    ______ ____
ATOM      1  N   UNL     1      62.357  62.124  64.917  0.00  0.00    +0.000 NA
ATOM      2  C   UNL     1      61.737  62.235  65.449  0.00  0.00    +0.000 A 
ATOM      3  N   UNL     1      60.986  61.944  65.274  0.00  0.00    +0.000 NA
ATOM      4  C   UNL     1      60.365  62.055  65.807  0.00  0.00    +0.000 A 
ATOM      5  C   UNL     1      60.497  62.458  66.514  0.00  0.00    +0.000 A 
ATOM      6  N   UNL     1      59.785  62.483  66.929  0.00  0.00    +0.000 NA
ATOM      7  C   UNL     1      59.213  62.096  66.478  0.00  0.00    +0.000 A 
ATOM      8  N   UNL     1      59.572  61.832  65.785  0.00  0.00    +0.000 NA
ATOM      9  C   UNL     1      61.249  62.750  66.690  0.00  0.00    +0.000 A 
ATOM     10  S   UNL     1      61.380  63.153  67.398  0.00  0.00    +0.000 S 
ATOM     11  N   UNL     1      61.868  62.638  66.157  0.00  0.00    +0.000 NA
ENDROOT
TORSDOF 0
ENDMDL
MODEL 3
REMARK VINA RESULT:    -5.536      1.391      2.607
REMARK INTER + INTRA:          -5.536
REMARK INTER:                  -5.536
REMARK INTRA:                   0.000
REMARK UNBOUND:                 0.000
ROOT
REMARK  Name = thioguanine
REMARK                            x       y       z     vdW  Elec       q    Type
REMARK                         _______ _______ _______ _____ _____    ______ ____
ATOM      1  N   UNL     1      58.995  61.938  66.239  0.00  0.00    +0.000 NA
ATOM      2  C   UNL     1      59.804  62.043  66.123  0.00  0.00    +0.000 A 
ATOM      3  N   UNL     1      60.168  61.734  65.451  0.00  0.00    +0.000 NA
ATOM      4  C   UNL     1      60.978  61.839  65.334  0.00  0.00    +0.000 A 
ATOM      5  C   UNL     1      61.424  62.254  65.890  0.00  0.00    +0.000 A 
ATOM      6  N   UNL     1      62.206  62.270  65.629  0.00  0.00    +0.000 NA
ATOM      7  C   UNL     1      62.243  61.865  64.911  0.00  0.00    +0.000 A 
ATOM      8  N   UNL     1      61.484  61.599  64.729  0.00  0.00    +0.000 NA
ATOM      9  C   UNL     1      61.060  62.563  66.563  0.00  0.00    +0.000 A 
ATOM     10  S   UNL     1      61.507  62.978  67.120  0.00  0.00    +0.000 S 
ATOM     11  N   UNL     1      60.251  62.458  66.679  0.00  0.00    +0.000 NA
ENDROOT
TORSDOF 0
ENDMDL
MODEL 4
REMARK VINA RESULT:    -5.091      2.731      3.775
REMARK INTER + INTRA:          -5.091
REMARK INTER:                  -5.091
REMARK INTRA:                   0.000
REMARK UNBOUND:                 0.000
ROOT
REMARK  Name = thioguanine
REMARK                            x       y       z     vdW  Elec       q    Type
REMARK                         _______ _______ _______ _____ _____    ______ ____
ATOM      1  N   UNL     1      61.358  62.456  66.462  0.00  0.00    +0.000 NA
ATOM      2  C   UNL     1      61.263  62.568  67.273  0.00  0.00    +0.000 A 
ATOM      3  N   UNL     1      60.818  62.033  67.714  0.00  0.00    +0.000 NA
ATOM      4  C   UNL     1      60.722  62.145  68.526  0.00  0.00    +0.000 A 
ATOM      5  C   UNL     1      61.072  62.794  68.896  0.00  0.00    +0.000 A 
ATOM      6  N   UNL     1      60.883  62.763  69.698  0.00  0.00    +0.000 NA
ATOM      7  C   UNL     1      60.417  62.094  69.825  0.00  0.00    +0.000 A 
ATOM      8  N   UNL     1      60.318  61.713  69.100  0.00  0.00    +0.000 NA
ATOM      9  C   UNL     1      61.517  63.331  68.454  0.00  0.00    +0.000 A 
ATOM     10  S   UNL     1      61.867  63.980  68.824  0.00  0.00    +0.000 S 
ATOM     11  N   UNL     1      61.612  63.218  67.643  0.00  0.00    +0.000 NA
ENDROOT
TORSDOF 0
ENDMDL
MODEL 5
REMARK VINA RESULT:    -4.978      3.230      4.697
REMARK INTER + INTRA:          -4.978
REMARK INTER:                  -4.978
REMARK INTRA:                   0.000
REMARK UNBOUND:                 0.000
ROOT
REMARK  Name = thioguanine
REMARK                            x       y       z     vdW  Elec       q    Type
REMARK                         _______ _______ _______ _____ _____    ______ ____
ATOM      1  N   UNL     1      60.193  61.642  70.500  0.00  0.00    +0.000 NA
ATOM      2  C   UNL     1      60.507  62.069  69.868  0.00  0.00    +0.000 A 
ATOM      3  N   UNL     1      60.441  61.777  69.100  0.00  0.00    +0.000 NA
ATOM      4  C   UNL     1      60.756  62.204  68.467  0.00  0.00    +0.000 A 
ATOM      5  C   UNL     1      61.136  62.923  68.604  0.00  0.00    +0.000 A 
ATOM      6  N   UNL     1      61.390  63.219  67.878  0.00  0.00    +0.000 NA
ATOM      7  C   UNL     1      61.167  62.684  67.292  0.00  0.00    +0.000 A 
ATOM      8  N   UNL     1      60.775  62.057  67.657  0.00  0.00    +0.000 NA
ATOM      9  C   UNL     1      61.202  63.215  69.374  0.00  0.00    +0.000 A 
ATOM     10  S   UNL     1      61.583  63.934  69.511  0.00  0.00    +0.000 S 
ATOM     11  N   UNL     1      60.888  62.788  70.005  0.00  0.00    +0.000 NA
ENDROOT
TORSDOF 0
ENDMDL
MODEL 6
REMARK VINA RESULT:    -4.835      7.484      8.170
REMARK INTER + INTRA:          -4.835
REMARK INTER:                  -4.835
REMARK INTRA:                   0.000
REMARK UNBOUND:                 0.000
ROOT
REMARK  Name = thioguanine
REMARK                            x       y       z     vdW  Elec       q    Type
REMARK                         _______ _______ _______ _____ _____    ______ ____
ATOM      1  N   UNL     1      66.385  67.678  69.861  0.00  0.00    +0.000 NA
ATOM      2  C   UNL     1      65.741  67.284  70.193  0.00  0.00    +0.000 A 
ATOM      3  N   UNL     1      65.477  67.487  70.947  0.00  0.00    +0.000 NA
ATOM      4  C   UNL     1      64.833  67.093  71.280  0.00  0.00    +0.000 A 
ATOM      5  C   UNL     1      64.453  66.495  70.857  0.00  0.00    +0.000 A 
ATOM      6  N   UNL     1      63.837  66.205  71.322  0.00  0.00    +0.000 NA
ATOM      7  C   UNL     1      63.836  66.624  72.033  0.00  0.00    +0.000 A 
ATOM      8  N   UNL     1      64.451  67.172  72.006  0.00  0.00    +0.000 NA
ATOM      9  C   UNL     1      64.717  66.291  70.102  0.00  0.00    +0.000 A 
ATOM     10  S   UNL     1      64.338  65.693  69.679  0.00  0.00    +0.000 S 
ATOM     11  N   UNL     1      65.361  66.686  69.770  0.00  0.00    +0.000 NA
ENDROOT
TORSDOF 0
ENDMDL
MODEL 7
REMARK VINA RESULT:    -4.795      8.131      8.930
REMARK INTER + INTRA:          -4.795
REMARK INTER:                  -4.795
REMARK INTRA:                   0.000
REMARK UNBOUND:                 0.000
ROOT
REMARK  Name = thioguanine
REMARK                            x       y       z     vdW  Elec       q    Type
REMARK                         _______ _______ _______ _____ _____    ______ ____
ATOM      1  N   UNL     1      60.056  67.811  70.703  0.00  0.00    +0.000 NA
ATOM      2  C   UNL     1      59.600  67.364  71.225  0.00  0.00    +0.000 A 
ATOM      3  N   UNL     1      59.085  67.739  71.748  0.00  0.00    +0.000 NA
ATOM      4  C   UNL     1      58.628  67.291  72.270  0.00  0.00    +0.000 A 
ATOM      5  C   UNL     1      58.687  66.468  72.268  0.00  0.00    +0.000 A 
ATOM      6  N   UNL     1      58.172  66.174  72.840  0.00  0.00    +0.000 NA
ATOM      7  C   UNL     1      57.795  66.815  73.197  0.00  0.00    +0.000 A 
ATOM      8  N   UNL     1      58.077  67.505  72.845  0.00  0.00    +0.000 NA
ATOM      9  C   UNL     1      59.202  66.093  71.743  0.00  0.00    +0.000 A 
ATOM     10  S   UNL     1      59.261  65.270  71.741  0.00  0.00    +0.000 S 
ATOM     11  N   UNL     1      59.658  66.541  71.222  0.00  0.00    +0.000 NA
ENDROOT
TORSDOF 0
ENDMDL
MODEL 8
REMARK VINA RESULT:    -4.687     11.669     12.199
REMARK INTER + INTRA:          -4.687
REMARK INTER:                  -4.687
REMARK INTRA:                   0.000
REMARK UNBOUND:                 0.000
ROOT
REMARK  Name = thioguanine
REMARK                            x       y       z     vdW  Elec       q    Type
REMARK                         _______ _______ _______ _____ _____    ______ ____
ATOM      1  N   UNL     1      63.500  60.195  54.059  0.00  0.00    +0.000 NA
ATOM      2  C   UNL     1      63.937  60.810  53.726  0.00  0.00    +0.000 A 
ATOM      3  N   UNL     1      64.231  61.413  54.205  0.00  0.00    +0.000 NA
ATOM      4  C   UNL     1      64.668  62.029  53.872  0.00  0.00    +0.000 A 
ATOM      5  C   UNL     1      64.810  62.040  53.059  0.00  0.00    +0.000 A 
ATOM      6  N   UNL     1      65.256  62.713  52.888  0.00  0.00    +0.000 NA
ATOM      7  C   UNL     1      65.389  63.117  53.594  0.00  0.00    +0.000 A 
ATOM      8  N   UNL     1      65.026  62.694  54.202  0.00  0.00    +0.000 NA
ATOM      9  C   UNL     1      64.515  61.436  52.580  0.00  0.00    +0.000 A 
ATOM     10  S   UNL     1      64.658  61.448  51.767  0.00  0.00    +0.000 S 
ATOM     11  N   UNL     1      64.079  60.821  52.914  0.00  0.00    +0.000 NA
ENDROOT
TORSDOF 0
ENDMDL
MODEL 9
REMARK VINA RESULT:    -4.606      8.500      9.182
REMARK INTER + INTRA:          -4.606
REMARK INTER:                  -4.606
REMARK INTRA:                   0.000
REMARK UNBOUND:                 0.000
ROOT
REMARK  Name = thioguanine
REMARK                            x       y       z     vdW  Elec       q    Type
REMARK                         _______ _______ _______ _____ _____    ______ ____
ATOM      1  N   UNL     1      62.398  68.147  72.883  0.00  0.00    +0.000 NA
ATOM      2  C   UNL     1      61.935  67.465  72.882  0.00  0.00    +0.000 A 
ATOM      3  N   UNL     1      62.290  66.725  72.797  0.00  0.00    +0.000 NA
ATOM      4  C   UNL     1      61.828  66.042  72.797  0.00  0.00    +0.000 A 
ATOM      5  C   UNL     1      61.009  66.099  72.881  0.00  0.00    +0.000 A 
ATOM      6  N   UNL     1      60.697  65.336  72.860  0.00  0.00    +0.000 NA
ATOM      7  C   UNL     1      61.322  64.807  72.763  0.00  0.00    +0.000 A 
ATOM      8  N   UNL     1      62.021  65.244  72.724  0.00  0.00    +0.000 NA
ATOM      9  C   UNL     1      60.653  66.839  72.966  0.00  0.00    +0.000 A 
ATOM     10  S   UNL     1      59.834  66.896  73.050  0.00  0.00    +0.000 S 
ATOM     11  N   UNL     1      61.117  67.521  72.966  0.00  0.00    +0.000 NA
ENDROOT
TORSDOF 0
ENDMDL
