MODEL 1
REMARK VINA RESULT:    -7.427      0.000      0.000
REMARK INTER + INTRA:          -7.427
REMARK INTER:                  -7.427
REMARK INTRA:                   0.000
REMARK UNBOUND:                 0.000
ROOT
REMARK  Name = thymol
REMARK                            x       y       z     vdW  Elec       q    Type
REMARK                         _______ _______ _______ _____ _____    ______ ____
ATOM      1  C   UNL     1      59.348  61.925  66.314  0.00  0.00    +0.000 C 
ATOM      2  C   UNL     1      60.101  62.254  66.395  0.00  0.00    +0.000 C 
ATOM      3  C   UNL     1      60.276  62.724  67.050  0.00  0.00    +0.000 C 
ATOM      4  C   UNL     1      60.676  62.112  65.823  0.00  0.00    +0.000 A 
ATOM      5  C   UNL     1      61.429  62.440  65.903  0.00  0.00    +0.000 A 
ATOM      6  O   UNL     1      61.604  62.910  66.558  0.00  0.00    +0.000 OA
ATOM      7  C   UNL     1      62.005  62.298  65.330  0.00  0.00    +0.000 A 
ATOM      8  C   UNL     1      61.829  61.828  64.676  0.00  0.00    +0.000 A 
ATOM      9  C   UNL     1      62.405  61.686  64.102  0.00  0.00    +0.000 C 
ATOM     10  C   UNL     1      61.076  61.500  64.594  0.00  0.00    +0.000 A 
ATOM     11  C   UNL     1      60.500  61.641  65.167  0.00  0.00    +0.000 A 
ENDROOT
TORSDOF 0
ENDMDL
MODEL 2
REMARK VINA RESULT:    -6.527      4.549      5.879
REMARK INTER + INTRA:          -6.527
REMARK INTER:                  -6.527
REMARK INTRA:                   0.000
REMARK UNBOUND:                 0.000
ROOT
REMARK  Name = thymol
REMARK                            x       y       z     vdW  Elec       q    Type
REMARK                         _______ _______ _______ _____ _____    ______ ____
ATOM      1  C   UNL     1      61.643  62.595  72.962  0.00  0.00    +0.000 C 
ATOM      2  C   UNL     1      61.276  63.079  72.403  0.00  0.00    +0.000 C 
ATOM      3  C   UNL     1      61.123  63.870  72.580  0.00  0.00    +0.000 C 
ATOM      4  C   UNL     1      61.062  62.772  71.669  0.00  0.00    +0.000 A 
ATOM      5  C   UNL     1      60.695  63.255  71.110  0.00  0.00    +0.000 A 
ATOM      6  O   UNL     1      60.542  64.046  71.287  0.00  0.00    +0.000 OA
ATOM      7  C   UNL     1      60.480  62.947  70.375  0.00  0.00    +0.000 A 
ATOM      8  C   UNL     1      60.634  62.156  70.199  0.00  0.00    +0.000 A 
ATOM      9  C   UNL     1      60.419  61.848  69.464  0.00  0.00    +0.000 C 
ATOM     10  C   UNL     1      61.001  61.672  70.758  0.00  0.00    +0.000 A 
ATOM     11  C   UNL     1      61.215  61.980  71.493  0.00  0.00    +0.000 A 
ENDROOT
TORSDOF 0
ENDMDL
MODEL 3
REMARK VINA RESULT:    -6.486      6.996      7.836
REMARK INTER + INTRA:          -6.486
REMARK INTER:                  -6.486
REMARK INTRA:                   0.000
REMARK UNBOUND:                 0.000
ROOT
REMARK  Name = thymol
REMARK                            x       y       z     vdW  Elec       q    Type
REMARK                         _______ _______ _______ _____ _____    ______ ____
ATOM      1  C   UNL     1      66.143  67.713  69.882  0.00  0.00    +0.000 C 
ATOM      2  C   UNL     1      65.963  67.189  70.494  0.00  0.00    +0.000 C 
ATOM      3  C   UNL     1      66.341  67.263  71.224  0.00  0.00    +0.000 C 
ATOM      4  C   UNL     1      65.406  66.594  70.377  0.00  0.00    +0.000 A 
ATOM      5  C   UNL     1      65.226  66.070  70.988  0.00  0.00    +0.000 A 
ATOM      6  O   UNL     1      65.604  66.144  71.717  0.00  0.00    +0.000 OA
ATOM      7  C   UNL     1      64.668  65.474  70.870  0.00  0.00    +0.000 A 
ATOM      8  C   UNL     1      64.290  65.401  70.141  0.00  0.00    +0.000 A 
ATOM      9  C   UNL     1      63.732  64.804  70.023  0.00  0.00    +0.000 C 
ATOM     10  C   UNL     1      64.470  65.924  69.529  0.00  0.00    +0.000 A 
ATOM     11  C   UNL     1      65.027  66.521  69.646  0.00  0.00    +0.000 A 
ENDROOT
TORSDOF 0
ENDMDL
MODEL 4
REMARK VINA RESULT:    -6.391      5.322      6.693
REMARK INTER + INTRA:          -6.391
REMARK INTER:                  -6.391
REMARK INTRA:                   0.000
REMARK UNBOUND:                 0.000
ROOT
REMARK  Name = thymol
REMARK                            x       y       z     vdW  Elec       q    Type
REMARK                         _______ _______ _______ _____ _____    ______ ____
ATOM      1  C   UNL     1      61.715  61.333  71.539  0.00  0.00    +0.000 C 
ATOM      2  C   UNL     1      61.101  61.843  71.330  0.00  0.00    +0.000 C 
ATOM      3  C   UNL     1      60.581  61.636  70.724  0.00  0.00    +0.000 C 
ATOM      4  C   UNL     1      61.008  62.560  71.726  0.00  0.00    +0.000 A 
ATOM      5  C   UNL     1      60.395  63.071  71.517  0.00  0.00    +0.000 A 
ATOM      6  O   UNL     1      59.875  62.863  70.911  0.00  0.00    +0.000 OA
ATOM      7  C   UNL     1      60.301  63.788  71.913  0.00  0.00    +0.000 A 
ATOM      8  C   UNL     1      60.821  63.995  72.518  0.00  0.00    +0.000 A 
ATOM      9  C   UNL     1      60.728  64.714  72.915  0.00  0.00    +0.000 C 
ATOM     10  C   UNL     1      61.435  63.485  72.728  0.00  0.00    +0.000 A 
ATOM     11  C   UNL     1      61.528  62.768  72.332  0.00  0.00    +0.000 A 
ENDROOT
TORSDOF 0
ENDMDL
MODEL 5
REMARK VINA RESULT:    -6.332      7.300      8.075
REMARK INTER + INTRA:          -6.332
REMARK INTER:                  -6.332
REMARK INTRA:                   0.000
REMARK UNBOUND:                 0.000
ROOT
REMARK  Name = thymol
REMARK                            x       y       z     vdW  Elec       q    Type
REMARK                         _______ _______ _______ _____ _____    ______ ____
ATOM      1  C   UNL     1      63.419  65.667  70.903  0.00  0.00    +0.000 C 
ATOM      2  C   UNL     1      63.840  66.249  71.310  0.00  0.00    +0.000 C 
ATOM      3  C   UNL     1      63.608  66.469  72.070  0.00  0.00    +0.000 C 
ATOM      4  C   UNL     1      64.492  66.609  70.957  0.00  0.00    +0.000 A 
ATOM      5  C   UNL     1      64.912  67.191  71.363  0.00  0.00    +0.000 A 
ATOM      6  O   UNL     1      64.680  67.411  72.123  0.00  0.00    +0.000 OA
ATOM      7  C   UNL     1      65.565  67.551  71.010  0.00  0.00    +0.000 A 
ATOM      8  C   UNL     1      65.796  67.331  70.250  0.00  0.00    +0.000 A 
ATOM      9  C   UNL     1      66.449  67.692  69.896  0.00  0.00    +0.000 C 
ATOM     10  C   UNL     1      65.376  66.749  69.843  0.00  0.00    +0.000 A 
ATOM     11  C   UNL     1      64.724  66.388  70.196  0.00  0.00    +0.000 A 
ENDROOT
TORSDOF 0
ENDMDL
MODEL 6
REMARK VINA RESULT:    -6.150      3.045      4.726
REMARK INTER + INTRA:          -6.150
REMARK INTER:                  -6.150
REMARK INTRA:                   0.000
REMARK UNBOUND:                 0.000
ROOT
REMARK  Name = thymol
REMARK                            x       y       z     vdW  Elec       q    Type
REMARK                         _______ _______ _______ _____ _____    ______ ____
ATOM      1  C   UNL     1      60.489  61.854  68.122  0.00  0.00    +0.000 C 
ATOM      2  C   UNL     1      60.443  62.573  68.526  0.00  0.00    +0.000 C 
ATOM      3  C   UNL     1      60.377  63.279  68.105  0.00  0.00    +0.000 C 
ATOM      4  C   UNL     1      60.462  62.584  69.350  0.00  0.00    +0.000 A 
ATOM      5  C   UNL     1      60.416  63.301  69.755  0.00  0.00    +0.000 A 
ATOM      6  O   UNL     1      60.350  64.007  69.334  0.00  0.00    +0.000 OA
ATOM      7  C   UNL     1      60.435  63.312  70.579  0.00  0.00    +0.000 A 
ATOM      8  C   UNL     1      60.501  62.605  70.999  0.00  0.00    +0.000 A 
ATOM      9  C   UNL     1      60.520  62.616  71.825  0.00  0.00    +0.000 C 
ATOM     10  C   UNL     1      60.547  61.887  70.596  0.00  0.00    +0.000 A 
ATOM     11  C   UNL     1      60.528  61.876  69.771  0.00  0.00    +0.000 A 
ENDROOT
TORSDOF 0
ENDMDL
MODEL 7
REMARK VINA RESULT:    -6.003     24.566     25.265
REMARK INTER + INTRA:          -6.003
REMARK INTER:                  -6.003
REMARK INTRA:                   0.000
REMARK UNBOUND:                 0.000
ROOT
REMARK  Name = thymol
REMARK                            x       y       z     vdW  Elec       q    Type
REMARK                         _______ _______ _______ _____ _____    ______ ____
ATOM      1  C   UNL     1      69.205  79.972  51.201  0.00  0.00    +0.000 C 
ATOM      2  C   UNL     1      69.952  80.165  50.906  0.00  0.00    +0.000 C 
ATOM      3  C   UNL     1      70.353  80.823  51.200  0.00  0.00    +0.000 C 
ATOM      4  C   UNL     1      70.296  79.700  50.319  0.00  0.00    +0.000 A 
ATOM      5  C   UNL     1      71.042  79.892  50.025  0.00  0.00    +0.000 A 
ATOM      6  O   UNL     1      71.443  80.551  50.318  0.00  0.00    +0.000 OA
ATOM      7  C   UNL     1      71.387  79.427  49.437  0.00  0.00    +0.000 A 
ATOM      8  C   UNL     1      70.985  78.769  49.144  0.00  0.00    +0.000 A 
ATOM      9  C   UNL     1      71.330  78.303  48.556  0.00  0.00    +0.000 C 
ATOM     10  C   UNL     1      70.239  78.576  49.438  0.00  0.00    +0.000 A 
ATOM     11  C   UNL     1      69.894  79.041  50.026  0.00  0.00    +0.000 A 
ENDROOT
TORSDOF 0
ENDMDL
MODEL 8
REMARK VINA RESULT:    -5.962     24.830     25.543
REMARK INTER + INTRA:          -5.962
REMARK INTER:                  -5.962
REMARK INTRA:                   0.000
REMARK UNBOUND:                 0.000
ROOT
REMARK  Name = thymol
REMARK                            x       y       z     vdW  Elec       q    Type
REMARK                         _______ _______ _______ _____ _____    ______ ____
ATOM      1  C   UNL     1      71.068  78.165  48.488  0.00  0.00    +0.000 C 
ATOM      2  C   UNL     1      71.414  78.789  48.902  0.00  0.00    +0.000 C 
ATOM      3  C   UNL     1      72.176  79.039  48.710  0.00  0.00    +0.000 C 
ATOM      4  C   UNL     1      70.998  79.163  49.507  0.00  0.00    +0.000 A 
ATOM      5  C   UNL     1      71.343  79.788  49.922  0.00  0.00    +0.000 A 
ATOM      6  O   UNL     1      72.106  80.037  49.729  0.00  0.00    +0.000 OA
ATOM      7  C   UNL     1      70.927  80.162  50.527  0.00  0.00    +0.000 A 
ATOM      8  C   UNL     1      70.165  79.912  50.719  0.00  0.00    +0.000 A 
ATOM      9  C   UNL     1      69.747  80.287  51.325  0.00  0.00    +0.000 C 
ATOM     10  C   UNL     1      69.818  79.288  50.305  0.00  0.00    +0.000 A 
ATOM     11  C   UNL     1      70.235  78.914  49.699  0.00  0.00    +0.000 A 
ENDROOT
TORSDOF 0
ENDMDL
MODEL 9
REMARK VINA RESULT:    -5.740      5.906      6.758
REMARK INTER + INTRA:          -5.740
REMARK INTER:                  -5.740
REMARK INTRA:                   0.000
REMARK UNBOUND:                 0.000
ROOT
REMARK  Name = thymol
REMARK                            x       y       z     vdW  Elec       q    Type
REMARK                         _______ _______ _______ _____ _____    ______ ____
ATOM      1  C   UNL     1      62.915  64.146  70.065  0.00  0.00    +0.000 C 
ATOM      2  C   UNL     1      63.116  64.724  70.619  0.00  0.00    +0.000 C 
ATOM      3  C   UNL     1      62.734  64.745  71.349  0.00  0.00    +0.000 C 
ATOM      4  C   UNL     1      63.699  65.280  70.442  0.00  0.00    +0.000 A 
ATOM      5  C   UNL     1      63.900  65.857  70.995  0.00  0.00    +0.000 A 
ATOM      6  O   UNL     1      63.518  65.878  71.726  0.00  0.00    +0.000 OA
ATOM      7  C   UNL     1      64.483  66.413  70.818  0.00  0.00    +0.000 A 
ATOM      8  C   UNL     1      64.865  66.392  70.087  0.00  0.00    +0.000 A 
ATOM      9  C   UNL     1      65.448  66.949  69.910  0.00  0.00    +0.000 C 
ATOM     10  C   UNL     1      64.664  65.815  69.533  0.00  0.00    +0.000 A 
ATOM     11  C   UNL     1      64.081  65.258  69.710  0.00  0.00    +0.000 A 
ENDROOT
TORSDOF 0
ENDMDL
