MODEL 1
REMARK VINA RESULT:    -5.657      0.000      0.000
REMARK INTER + INTRA:          -5.657
REMARK INTER:                  -5.657
REMARK INTRA:                   0.000
REMARK UNBOUND:                 0.000
ROOT
REMARK  Name = tidiacic
REMARK                            x       y       z     vdW  Elec       q    Type
REMARK                         _______ _______ _______ _____ _____    ______ ____
ATOM      1  O   UNK     1      59.726  62.700  67.431  0.00  0.00    +0.000 OA
ATOM      2  C   UNK     1      59.701  62.306  66.707  0.00  0.00    +0.000 C 
ATOM      3  O   UNK     1      58.986  62.001  66.429  0.00  0.00    +0.000 OA
ATOM      4  C   UNK     1      60.390  62.217  66.261  0.00  0.00    +0.000 C 
ATOM      5  C   UNK     1      61.140  62.491  66.467  0.00  0.00    +0.000 C 
ATOM      6  S   UNK     1      61.662  62.282  65.864  0.00  0.00    +0.000 S 
ATOM      7  C   UNK     1      61.234  61.878  65.286  0.00  0.00    +0.000 C 
ATOM      8  N   UNK     1      60.448  61.838  65.531  0.00  0.00    +0.000 NA
ATOM      9  C   UNK     1      61.540  61.568  64.584  0.00  0.00    +0.000 C 
ATOM     10  O   UNK     1      62.343  61.651  64.413  0.00  0.00    +0.000 OA
ATOM     11  O   UNK     1      61.044  61.176  64.055  0.00  0.00    +0.000 OA
ENDROOT
TORSDOF 0
ENDMDL
MODEL 2
REMARK VINA RESULT:    -5.355      1.253      3.032
REMARK INTER + INTRA:          -5.355
REMARK INTER:                  -5.355
REMARK INTRA:                   0.000
REMARK UNBOUND:                 0.000
ROOT
REMARK  Name = tidiacic
REMARK                            x       y       z     vdW  Elec       q    Type
REMARK                         _______ _______ _______ _____ _____    ______ ____
ATOM      1  O   UNK     1      61.647  61.734  64.401  0.00  0.00    +0.000 OA
ATOM      2  C   UNK     1      61.967  62.158  65.032  0.00  0.00    +0.000 C 
ATOM      3  O   UNK     1      62.750  62.417  64.999  0.00  0.00    +0.000 OA
ATOM      4  C   UNK     1      61.505  62.324  65.694  0.00  0.00    +0.000 C 
ATOM      5  C   UNK     1      60.718  62.103  65.805  0.00  0.00    +0.000 C 
ATOM      6  S   UNK     1      60.475  62.383  66.542  0.00  0.00    +0.000 S 
ATOM      7  C   UNK     1      61.113  62.778  66.887  0.00  0.00    +0.000 C 
ATOM      8  N   UNK     1      61.749  62.742  66.364  0.00  0.00    +0.000 NA
ATOM      9  C   UNK     1      61.113  63.144  67.627  0.00  0.00    +0.000 C 
ATOM     10  O   UNK     1      60.432  63.135  68.091  0.00  0.00    +0.000 OA
ATOM     11  O   UNK     1      61.794  63.519  67.901  0.00  0.00    +0.000 OA
ENDROOT
TORSDOF 0
ENDMDL
MODEL 3
REMARK VINA RESULT:    -5.100      2.106      2.414
REMARK INTER + INTRA:          -5.100
REMARK INTER:                  -5.100
REMARK INTRA:                   0.000
REMARK UNBOUND:                 0.000
ROOT
REMARK  Name = tidiacic
REMARK                            x       y       z     vdW  Elec       q    Type
REMARK                         _______ _______ _______ _____ _____    ______ ____
ATOM      1  O   UNK     1      60.413  62.914  69.913  0.00  0.00    +0.000 OA
ATOM      2  C   UNK     1      60.497  62.368  69.301  0.00  0.00    +0.000 C 
ATOM      3  O   UNK     1      60.262  61.584  69.413  0.00  0.00    +0.000 OA
ATOM      4  C   UNK     1      60.815  62.604  68.577  0.00  0.00    +0.000 C 
ATOM      5  C   UNK     1      61.072  63.363  68.385  0.00  0.00    +0.000 C 
ATOM      6  S   UNK     1      61.348  63.350  67.608  0.00  0.00    +0.000 S 
ATOM      7  C   UNK     1      61.261  62.582  67.320  0.00  0.00    +0.000 C 
ATOM      8  N   UNK     1      60.932  62.121  67.918  0.00  0.00    +0.000 NA
ATOM      9  C   UNK     1      61.467  62.322  66.564  0.00  0.00    +0.000 C 
ATOM     10  O   UNK     1      61.793  62.850  66.021  0.00  0.00    +0.000 OA
ATOM     11  O   UNK     1      61.348  61.534  66.352  0.00  0.00    +0.000 OA
ENDROOT
TORSDOF 0
ENDMDL
MODEL 4
REMARK VINA RESULT:    -5.076      1.677      3.125
REMARK INTER + INTRA:          -5.076
REMARK INTER:                  -5.076
REMARK INTRA:                   0.000
REMARK UNBOUND:                 0.000
ROOT
REMARK  Name = tidiacic
REMARK                            x       y       z     vdW  Elec       q    Type
REMARK                         _______ _______ _______ _____ _____    ______ ____
ATOM      1  O   UNK     1      61.721  62.591  65.423  0.00  0.00    +0.000 OA
ATOM      2  C   UNK     1      61.322  62.138  65.984  0.00  0.00    +0.000 C 
ATOM      3  O   UNK     1      61.017  61.399  65.777  0.00  0.00    +0.000 OA
ATOM      4  C   UNK     1      61.227  62.423  66.753  0.00  0.00    +0.000 C 
ATOM      5  C   UNK     1      61.500  63.146  67.039  0.00  0.00    +0.000 C 
ATOM      6  S   UNK     1      61.284  63.204  67.833  0.00  0.00    +0.000 S 
ATOM      7  C   UNK     1      60.877  62.516  68.037  0.00  0.00    +0.000 C 
ATOM      8  N   UNK     1      60.842  62.033  67.370  0.00  0.00    +0.000 NA
ATOM      9  C   UNK     1      60.561  62.342  68.780  0.00  0.00    +0.000 C 
ATOM     10  O   UNK     1      60.641  62.882  69.398  0.00  0.00    +0.000 OA
ATOM     11  O   UNK     1      60.167  61.629  68.903  0.00  0.00    +0.000 OA
ENDROOT
TORSDOF 0
ENDMDL
MODEL 5
REMARK VINA RESULT:    -4.988      1.736      2.529
REMARK INTER + INTRA:          -4.988
REMARK INTER:                  -4.988
REMARK INTRA:                   0.000
REMARK UNBOUND:                 0.000
ROOT
REMARK  Name = tidiacic
REMARK                            x       y       z     vdW  Elec       q    Type
REMARK                         _______ _______ _______ _____ _____    ______ ____
ATOM      1  O   UNK     1      61.579  63.825  69.077  0.00  0.00    +0.000 OA
ATOM      2  C   UNK     1      60.843  63.610  68.774  0.00  0.00    +0.000 C 
ATOM      3  O   UNK     1      60.156  63.784  69.198  0.00  0.00    +0.000 OA
ATOM      4  C   UNK     1      60.793  63.222  68.047  0.00  0.00    +0.000 C 
ATOM      5  C   UNK     1      61.427  63.013  67.564  0.00  0.00    +0.000 C 
ATOM      6  S   UNK     1      61.125  62.637  66.896  0.00  0.00    +0.000 S 
ATOM      7  C   UNK     1      60.304  62.613  66.965  0.00  0.00    +0.000 C 
ATOM      8  N   UNK     1      60.098  62.975  67.677  0.00  0.00    +0.000 NA
ATOM      9  C   UNK     1      59.780  62.285  66.418  0.00  0.00    +0.000 C 
ATOM     10  O   UNK     1      60.068  61.940  65.727  0.00  0.00    +0.000 OA
ATOM     11  O   UNK     1      58.968  62.302  66.563  0.00  0.00    +0.000 OA
ENDROOT
TORSDOF 0
ENDMDL
MODEL 6
REMARK VINA RESULT:    -4.909      6.353      7.251
REMARK INTER + INTRA:          -4.909
REMARK INTER:                  -4.909
REMARK INTRA:                   0.000
REMARK UNBOUND:                 0.000
ROOT
REMARK  Name = tidiacic
REMARK                            x       y       z     vdW  Elec       q    Type
REMARK                         _______ _______ _______ _____ _____    ______ ____
ATOM      1  O   UNK     1      59.172  67.140  72.859  0.00  0.00    +0.000 OA
ATOM      2  C   UNK     1      59.016  66.745  72.152  0.00  0.00    +0.000 C 
ATOM      3  O   UNK     1      58.516  66.088  72.148  0.00  0.00    +0.000 OA
ATOM      4  C   UNK     1      59.359  67.007  71.449  0.00  0.00    +0.000 C 
ATOM      5  C   UNK     1      59.867  67.652  71.367  0.00  0.00    +0.000 C 
ATOM      6  S   UNK     1      60.076  67.712  70.572  0.00  0.00    +0.000 S 
ATOM      7  C   UNK     1      59.697  67.105  70.161  0.00  0.00    +0.000 C 
ATOM      8  N   UNK     1      59.254  66.669  70.703  0.00  0.00    +0.000 NA
ATOM      9  C   UNK     1      59.753  66.960  69.351  0.00  0.00    +0.000 C 
ATOM     10  O   UNK     1      60.220  67.446  68.876  0.00  0.00    +0.000 OA
ATOM     11  O   UNK     1      59.341  66.329  69.016  0.00  0.00    +0.000 OA
ENDROOT
TORSDOF 0
ENDMDL
MODEL 7
REMARK VINA RESULT:    -4.876      6.218      7.505
REMARK INTER + INTRA:          -4.876
REMARK INTER:                  -4.876
REMARK INTRA:                   0.000
REMARK UNBOUND:                 0.000
ROOT
REMARK  Name = tidiacic
REMARK                            x       y       z     vdW  Elec       q    Type
REMARK                         _______ _______ _______ _____ _____    ______ ____
ATOM      1  O   UNK     1      60.009  67.258  68.841  0.00  0.00    +0.000 OA
ATOM      2  C   UNK     1      59.675  66.701  69.350  0.00  0.00    +0.000 C 
ATOM      3  O   UNK     1      59.425  65.971  69.056  0.00  0.00    +0.000 OA
ATOM      4  C   UNK     1      59.591  66.874  70.152  0.00  0.00    +0.000 C 
ATOM      5  C   UNK     1      59.814  67.575  70.524  0.00  0.00    +0.000 C 
ATOM      6  S   UNK     1      59.630  67.509  71.325  0.00  0.00    +0.000 S 
ATOM      7  C   UNK     1      59.293  66.766  71.449  0.00  0.00    +0.000 C 
ATOM      8  N   UNK     1      59.269  66.373  70.725  0.00  0.00    +0.000 NA
ATOM      9  C   UNK     1      59.027  66.469  72.172  0.00  0.00    +0.000 C 
ATOM     10  O   UNK     1      59.087  66.929  72.853  0.00  0.00    +0.000 OA
ATOM     11  O   UNK     1      58.701  65.713  72.211  0.00  0.00    +0.000 OA
ENDROOT
TORSDOF 0
ENDMDL
MODEL 8
REMARK VINA RESULT:    -4.851      3.442      4.383
REMARK INTER + INTRA:          -4.851
REMARK INTER:                  -4.851
REMARK INTRA:                   0.000
REMARK UNBOUND:                 0.000
ROOT
REMARK  Name = tidiacic
REMARK                            x       y       z     vdW  Elec       q    Type
REMARK                         _______ _______ _______ _____ _____    ______ ____
ATOM      1  O   UNK     1      62.812  64.813  69.509  0.00  0.00    +0.000 OA
ATOM      2  C   UNK     1      62.385  64.199  69.857  0.00  0.00    +0.000 C 
ATOM      3  O   UNK     1      62.459  64.051  70.665  0.00  0.00    +0.000 OA
ATOM      4  C   UNK     1      61.883  63.733  69.396  0.00  0.00    +0.000 C 
ATOM      5  C   UNK     1      61.752  63.815  68.586  0.00  0.00    +0.000 C 
ATOM      6  S   UNK     1      61.213  63.236  68.355  0.00  0.00    +0.000 S 
ATOM      7  C   UNK     1      61.009  62.796  69.023  0.00  0.00    +0.000 C 
ATOM      8  N   UNK     1      61.423  63.103  69.667  0.00  0.00    +0.000 NA
ATOM      9  C   UNK     1      60.482  62.161  69.043  0.00  0.00    +0.000 C 
ATOM     10  O   UNK     1      60.107  61.914  68.351  0.00  0.00    +0.000 OA
ATOM     11  O   UNK     1      60.332  61.772  69.754  0.00  0.00    +0.000 OA
ENDROOT
TORSDOF 0
ENDMDL
MODEL 9
REMARK VINA RESULT:    -4.765     12.163     12.755
REMARK INTER + INTRA:          -4.765
REMARK INTER:                  -4.765
REMARK INTRA:                   0.000
REMARK UNBOUND:                 0.000
ROOT
REMARK  Name = tidiacic
REMARK                            x       y       z     vdW  Elec       q    Type
REMARK                         _______ _______ _______ _____ _____    ______ ____
ATOM      1  O   UNK     1      64.980  62.208  53.057  0.00  0.00    +0.000 OA
ATOM      2  C   UNK     1      64.603  61.797  53.664  0.00  0.00    +0.000 C 
ATOM      3  O   UNK     1      64.575  62.119  54.424  0.00  0.00    +0.000 OA
ATOM      4  C   UNK     1      64.252  61.066  53.513  0.00  0.00    +0.000 C 
ATOM      5  C   UNK     1      64.235  60.677  52.786  0.00  0.00    +0.000 C 
ATOM      6  S   UNK     1      63.830  59.966  52.886  0.00  0.00    +0.000 S 
ATOM      7  C   UNK     1      63.596  59.915  53.676  0.00  0.00    +0.000 C 
ATOM      8  N   UNK     1      63.857  60.594  54.064  0.00  0.00    +0.000 NA
ATOM      9  C   UNK     1      63.175  59.293  54.018  0.00  0.00    +0.000 C 
ATOM     10  O   UNK     1      62.950  58.646  53.558  0.00  0.00    +0.000 OA
ATOM     11  O   UNK     1      62.979  59.318  54.818  0.00  0.00    +0.000 OA
ENDROOT
TORSDOF 0
ENDMDL
