MODEL 1
REMARK VINA RESULT:   -12.339      0.000      0.000
REMARK INTER + INTRA:         -12.339
REMARK INTER:                 -12.339
REMARK INTRA:                   0.000
REMARK UNBOUND:                 0.000
ROOT
REMARK  Name = tifenamil
REMARK                            x       y       z     vdW  Elec       q    Type
REMARK                         _______ _______ _______ _____ _____    ______ ____
ATOM      1  C   UNL     1      61.835  64.771  70.509  0.00  0.00    +0.000 C 
ATOM      2  C   UNL     1      61.396  64.373  69.936  0.00  0.00    +0.000 C 
ATOM      3  N   UNL     1      61.762  64.112  69.244  0.00  0.00    +0.000 NA
ATOM      4  C   UNL     1      62.567  64.251  69.126  0.00  0.00    +0.000 C 
ATOM      5  C   UNL     1      63.005  64.649  69.700  0.00  0.00    +0.000 C 
ATOM      6  C   UNL     1      61.324  63.714  68.670  0.00  0.00    +0.000 C 
ATOM      7  C   UNL     1      61.690  63.454  67.978  0.00  0.00    +0.000 C 
ATOM      8  S   UNL     1      61.251  63.055  67.404  0.00  0.00    +0.000 S 
ATOM      9  C   UNL     1      61.617  62.794  66.712  0.00  0.00    +0.000 C 
ATOM     10  O   UNL     1      62.421  62.932  66.594  0.00  0.00    +0.000 OA
ATOM     11  C   UNL     1      61.179  62.396  66.138  0.00  0.00    +0.000 C 
ATOM     12  C   UNL     1      61.545  62.135  65.446  0.00  0.00    +0.000 A 
ATOM     13  C   UNL     1      61.106  61.737  64.872  0.00  0.00    +0.000 A 
ATOM     14  C   UNL     1      61.472  61.476  64.181  0.00  0.00    +0.000 A 
ATOM     15  C   UNL     1      62.277  61.615  64.062  0.00  0.00    +0.000 A 
ATOM     16  C   UNL     1      62.716  62.013  64.636  0.00  0.00    +0.000 A 
ATOM     17  C   UNL     1      62.349  62.274  65.328  0.00  0.00    +0.000 A 
ATOM     18  C   UNL     1      60.373  62.257  66.256  0.00  0.00    +0.000 A 
ATOM     19  C   UNL     1      60.008  62.518  66.948  0.00  0.00    +0.000 A 
ATOM     20  C   UNL     1      59.203  62.380  67.066  0.00  0.00    +0.000 A 
ATOM     21  C   UNL     1      58.764  61.981  66.492  0.00  0.00    +0.000 A 
ATOM     22  C   UNL     1      59.131  61.721  65.800  0.00  0.00    +0.000 A 
ATOM     23  C   UNL     1      59.936  61.859  65.682  0.00  0.00    +0.000 A 
ENDROOT
TORSDOF 0
ENDMDL
MODEL 2
REMARK VINA RESULT:   -11.849      1.857      4.770
REMARK INTER + INTRA:         -11.849
REMARK INTER:                 -11.849
REMARK INTRA:                   0.000
REMARK UNBOUND:                 0.000
ROOT
REMARK  Name = tifenamil
REMARK                            x       y       z     vdW  Elec       q    Type
REMARK                         _______ _______ _______ _____ _____    ______ ____
ATOM      1  C   UNL     1      62.004  61.257  65.306  0.00  0.00    +0.000 C 
ATOM      2  C   UNL     1      61.781  61.325  66.097  0.00  0.00    +0.000 C 
ATOM      3  N   UNL     1      61.544  62.055  66.397  0.00  0.00    +0.000 NA
ATOM      4  C   UNL     1      61.530  62.719  65.907  0.00  0.00    +0.000 C 
ATOM      5  C   UNL     1      61.753  62.651  65.115  0.00  0.00    +0.000 C 
ATOM      6  C   UNL     1      61.320  62.124  67.188  0.00  0.00    +0.000 C 
ATOM      7  C   UNL     1      61.083  62.854  67.489  0.00  0.00    +0.000 C 
ATOM      8  S   UNL     1      60.860  62.922  68.281  0.00  0.00    +0.000 S 
ATOM      9  C   UNL     1      60.623  63.653  68.582  0.00  0.00    +0.000 C 
ATOM     10  O   UNL     1      60.609  64.316  68.091  0.00  0.00    +0.000 OA
ATOM     11  C   UNL     1      60.400  63.721  69.373  0.00  0.00    +0.000 C 
ATOM     12  C   UNL     1      60.163  64.452  69.673  0.00  0.00    +0.000 A 
ATOM     13  C   UNL     1      59.940  64.520  70.464  0.00  0.00    +0.000 A 
ATOM     14  C   UNL     1      59.703  65.250  70.765  0.00  0.00    +0.000 A 
ATOM     15  C   UNL     1      59.689  65.913  70.274  0.00  0.00    +0.000 A 
ATOM     16  C   UNL     1      59.912  65.846  69.483  0.00  0.00    +0.000 A 
ATOM     17  C   UNL     1      60.149  65.114  69.183  0.00  0.00    +0.000 A 
ATOM     18  C   UNL     1      60.414  63.057  69.864  0.00  0.00    +0.000 A 
ATOM     19  C   UNL     1      60.651  62.327  69.563  0.00  0.00    +0.000 A 
ATOM     20  C   UNL     1      60.665  61.664  70.054  0.00  0.00    +0.000 A 
ATOM     21  C   UNL     1      60.442  61.732  70.845  0.00  0.00    +0.000 A 
ATOM     22  C   UNL     1      60.205  62.463  71.146  0.00  0.00    +0.000 A 
ATOM     23  C   UNL     1      60.191  63.126  70.655  0.00  0.00    +0.000 A 
ENDROOT
TORSDOF 0
ENDMDL
MODEL 3
REMARK VINA RESULT:   -11.664      2.633      4.433
REMARK INTER + INTRA:         -11.664
REMARK INTER:                 -11.664
REMARK INTRA:                   0.000
REMARK UNBOUND:                 0.000
ROOT
REMARK  Name = tifenamil
REMARK                            x       y       z     vdW  Elec       q    Type
REMARK                         _______ _______ _______ _____ _____    ______ ____
ATOM      1  C   UNL     1      65.271  66.706  71.156  0.00  0.00    +0.000 C 
ATOM      2  C   UNL     1      64.691  66.154  71.352  0.00  0.00    +0.000 C 
ATOM      3  N   UNL     1      64.278  65.760  70.757  0.00  0.00    +0.000 NA
ATOM      4  C   UNL     1      64.444  65.920  69.964  0.00  0.00    +0.000 C 
ATOM      5  C   UNL     1      65.024  66.473  69.768  0.00  0.00    +0.000 C 
ATOM      6  C   UNL     1      63.698  65.208  70.952  0.00  0.00    +0.000 C 
ATOM      7  C   UNL     1      63.284  64.815  70.356  0.00  0.00    +0.000 C 
ATOM      8  S   UNL     1      62.704  64.261  70.553  0.00  0.00    +0.000 S 
ATOM      9  C   UNL     1      62.290  63.868  69.956  0.00  0.00    +0.000 C 
ATOM     10  O   UNL     1      62.457  64.028  69.165  0.00  0.00    +0.000 OA
ATOM     11  C   UNL     1      61.710  63.315  70.153  0.00  0.00    +0.000 C 
ATOM     12  C   UNL     1      61.297  62.922  69.556  0.00  0.00    +0.000 A 
ATOM     13  C   UNL     1      60.717  62.369  69.753  0.00  0.00    +0.000 A 
ATOM     14  C   UNL     1      60.304  61.976  69.157  0.00  0.00    +0.000 A 
ATOM     15  C   UNL     1      60.470  62.136  68.365  0.00  0.00    +0.000 A 
ATOM     16  C   UNL     1      61.050  62.689  68.169  0.00  0.00    +0.000 A 
ATOM     17  C   UNL     1      61.464  63.082  68.765  0.00  0.00    +0.000 A 
ATOM     18  C   UNL     1      61.544  63.155  70.945  0.00  0.00    +0.000 A 
ATOM     19  C   UNL     1      61.957  63.549  71.540  0.00  0.00    +0.000 A 
ATOM     20  C   UNL     1      61.791  63.389  72.333  0.00  0.00    +0.000 A 
ATOM     21  C   UNL     1      61.211  62.836  72.529  0.00  0.00    +0.000 A 
ATOM     22  C   UNL     1      60.797  62.443  71.933  0.00  0.00    +0.000 A 
ATOM     23  C   UNL     1      60.964  62.603  71.140  0.00  0.00    +0.000 A 
ENDROOT
TORSDOF 0
ENDMDL
MODEL 4
REMARK VINA RESULT:   -11.607      1.853      4.721
REMARK INTER + INTRA:         -11.607
REMARK INTER:                 -11.607
REMARK INTRA:                   0.000
REMARK UNBOUND:                 0.000
ROOT
REMARK  Name = tifenamil
REMARK                            x       y       z     vdW  Elec       q    Type
REMARK                         _______ _______ _______ _____ _____    ______ ____
ATOM      1  C   UNL     1      62.039  62.311  64.647  0.00  0.00    +0.000 C 
ATOM      2  C   UNL     1      61.783  62.767  65.285  0.00  0.00    +0.000 C 
ATOM      3  N   UNL     1      61.656  62.414  66.020  0.00  0.00    +0.000 NA
ATOM      4  C   UNL     1      61.786  61.605  66.117  0.00  0.00    +0.000 C 
ATOM      5  C   UNL     1      62.043  61.149  65.479  0.00  0.00    +0.000 C 
ATOM      6  C   UNL     1      61.400  62.869  66.658  0.00  0.00    +0.000 C 
ATOM      7  C   UNL     1      61.274  62.517  67.392  0.00  0.00    +0.000 C 
ATOM      8  S   UNL     1      61.017  62.973  68.031  0.00  0.00    +0.000 S 
ATOM      9  C   UNL     1      60.891  62.620  68.766  0.00  0.00    +0.000 C 
ATOM     10  O   UNL     1      61.021  61.812  68.863  0.00  0.00    +0.000 OA
ATOM     11  C   UNL     1      60.634  63.076  69.404  0.00  0.00    +0.000 C 
ATOM     12  C   UNL     1      60.508  62.723  70.139  0.00  0.00    +0.000 A 
ATOM     13  C   UNL     1      60.252  63.179  70.777  0.00  0.00    +0.000 A 
ATOM     14  C   UNL     1      60.125  62.826  71.511  0.00  0.00    +0.000 A 
ATOM     15  C   UNL     1      60.255  62.017  71.608  0.00  0.00    +0.000 A 
ATOM     16  C   UNL     1      60.512  61.561  70.971  0.00  0.00    +0.000 A 
ATOM     17  C   UNL     1      60.638  61.914  70.236  0.00  0.00    +0.000 A 
ATOM     18  C   UNL     1      60.504  63.885  69.307  0.00  0.00    +0.000 A 
ATOM     19  C   UNL     1      60.630  64.238  68.572  0.00  0.00    +0.000 A 
ATOM     20  C   UNL     1      60.500  65.047  68.475  0.00  0.00    +0.000 A 
ATOM     21  C   UNL     1      60.244  65.503  69.113  0.00  0.00    +0.000 A 
ATOM     22  C   UNL     1      60.118  65.150  69.848  0.00  0.00    +0.000 A 
ATOM     23  C   UNL     1      60.248  64.340  69.945  0.00  0.00    +0.000 A 
ENDROOT
TORSDOF 0
ENDMDL
MODEL 5
REMARK VINA RESULT:   -11.307      1.596      5.609
REMARK INTER + INTRA:         -11.307
REMARK INTER:                 -11.307
REMARK INTRA:                   0.000
REMARK UNBOUND:                 0.000
ROOT
REMARK  Name = tifenamil
REMARK                            x       y       z     vdW  Elec       q    Type
REMARK                         _______ _______ _______ _____ _____    ______ ____
ATOM      1  C   UNL     1      61.095  62.455  65.755  0.00  0.00    +0.000 C 
ATOM      2  C   UNL     1      61.518  62.814  66.365  0.00  0.00    +0.000 C 
ATOM      3  N   UNL     1      61.221  62.807  67.134  0.00  0.00    +0.000 NA
ATOM      4  C   UNL     1      60.499  62.441  67.293  0.00  0.00    +0.000 C 
ATOM      5  C   UNL     1      60.075  62.082  66.683  0.00  0.00    +0.000 C 
ATOM      6  C   UNL     1      61.644  63.166  67.744  0.00  0.00    +0.000 C 
ATOM      7  C   UNL     1      61.346  63.159  68.513  0.00  0.00    +0.000 C 
ATOM      8  S   UNL     1      61.770  63.519  69.123  0.00  0.00    +0.000 S 
ATOM      9  C   UNL     1      61.472  63.511  69.893  0.00  0.00    +0.000 C 
ATOM     10  O   UNL     1      60.751  63.145  70.052  0.00  0.00    +0.000 OA
ATOM     11  C   UNL     1      61.896  63.871  70.502  0.00  0.00    +0.000 C 
ATOM     12  C   UNL     1      61.597  63.863  71.272  0.00  0.00    +0.000 A 
ATOM     13  C   UNL     1      62.021  64.222  71.882  0.00  0.00    +0.000 A 
ATOM     14  C   UNL     1      61.724  64.215  72.650  0.00  0.00    +0.000 A 
ATOM     15  C   UNL     1      61.002  63.849  72.810  0.00  0.00    +0.000 A 
ATOM     16  C   UNL     1      60.578  63.489  72.200  0.00  0.00    +0.000 A 
ATOM     17  C   UNL     1      60.876  63.497  71.431  0.00  0.00    +0.000 A 
ATOM     18  C   UNL     1      62.618  64.237  70.343  0.00  0.00    +0.000 A 
ATOM     19  C   UNL     1      62.915  64.244  69.574  0.00  0.00    +0.000 A 
ATOM     20  C   UNL     1      63.638  64.611  69.415  0.00  0.00    +0.000 A 
ATOM     21  C   UNL     1      64.061  64.970  70.024  0.00  0.00    +0.000 A 
ATOM     22  C   UNL     1      63.763  64.963  70.794  0.00  0.00    +0.000 A 
ATOM     23  C   UNL     1      63.041  64.596  70.953  0.00  0.00    +0.000 A 
ENDROOT
TORSDOF 0
ENDMDL
MODEL 6
REMARK VINA RESULT:   -11.166      1.613      5.358
REMARK INTER + INTRA:         -11.166
REMARK INTER:                 -11.166
REMARK INTRA:                   0.000
REMARK UNBOUND:                 0.000
ROOT
REMARK  Name = tifenamil
REMARK                            x       y       z     vdW  Elec       q    Type
REMARK                         _______ _______ _______ _____ _____    ______ ____
ATOM      1  C   UNL     1      59.869  62.218  66.960  0.00  0.00    +0.000 C 
ATOM      2  C   UNL     1      60.068  62.474  67.718  0.00  0.00    +0.000 C 
ATOM      3  N   UNL     1      60.752  62.919  67.837  0.00  0.00    +0.000 NA
ATOM      4  C   UNL     1      61.238  63.108  67.197  0.00  0.00    +0.000 C 
ATOM      5  C   UNL     1      61.039  62.852  66.439  0.00  0.00    +0.000 C 
ATOM      6  C   UNL     1      60.952  63.175  68.595  0.00  0.00    +0.000 C 
ATOM      7  C   UNL     1      61.636  63.619  68.714  0.00  0.00    +0.000 C 
ATOM      8  S   UNL     1      61.836  63.875  69.474  0.00  0.00    +0.000 S 
ATOM      9  C   UNL     1      62.521  64.320  69.592  0.00  0.00    +0.000 C 
ATOM     10  O   UNL     1      63.006  64.509  68.952  0.00  0.00    +0.000 OA
ATOM     11  C   UNL     1      62.720  64.576  70.350  0.00  0.00    +0.000 C 
ATOM     12  C   UNL     1      63.405  65.021  70.469  0.00  0.00    +0.000 A 
ATOM     13  C   UNL     1      63.604  65.277  71.227  0.00  0.00    +0.000 A 
ATOM     14  C   UNL     1      64.288  65.721  71.346  0.00  0.00    +0.000 A 
ATOM     15  C   UNL     1      64.774  65.910  70.706  0.00  0.00    +0.000 A 
ATOM     16  C   UNL     1      64.575  65.655  69.948  0.00  0.00    +0.000 A 
ATOM     17  C   UNL     1      63.890  65.210  69.829  0.00  0.00    +0.000 A 
ATOM     18  C   UNL     1      62.234  64.387  70.991  0.00  0.00    +0.000 A 
ATOM     19  C   UNL     1      61.550  63.942  70.872  0.00  0.00    +0.000 A 
ATOM     20  C   UNL     1      61.065  63.753  71.512  0.00  0.00    +0.000 A 
ATOM     21  C   UNL     1      61.264  64.009  72.270  0.00  0.00    +0.000 A 
ATOM     22  C   UNL     1      61.949  64.454  72.389  0.00  0.00    +0.000 A 
ATOM     23  C   UNL     1      62.434  64.643  71.749  0.00  0.00    +0.000 A 
ENDROOT
TORSDOF 0
ENDMDL
MODEL 7
REMARK VINA RESULT:   -11.153      3.399      5.469
REMARK INTER + INTRA:         -11.153
REMARK INTER:                 -11.153
REMARK INTRA:                   0.000
REMARK UNBOUND:                 0.000
ROOT
REMARK  Name = tifenamil
REMARK                            x       y       z     vdW  Elec       q    Type
REMARK                         _______ _______ _______ _____ _____    ______ ____
ATOM      1  C   UNL     1      65.978  67.423  70.035  0.00  0.00    +0.000 C 
ATOM      2  C   UNL     1      65.389  66.887  69.818  0.00  0.00    +0.000 C 
ATOM      3  N   UNL     1      64.946  66.504  70.398  0.00  0.00    +0.000 NA
ATOM      4  C   UNL     1      65.091  66.655  71.196  0.00  0.00    +0.000 C 
ATOM      5  C   UNL     1      65.680  67.190  71.413  0.00  0.00    +0.000 C 
ATOM      6  C   UNL     1      64.357  65.968  70.181  0.00  0.00    +0.000 C 
ATOM      7  C   UNL     1      63.914  65.584  70.761  0.00  0.00    +0.000 C 
ATOM      8  S   UNL     1      63.324  65.049  70.543  0.00  0.00    +0.000 S 
ATOM      9  C   UNL     1      62.881  64.665  71.124  0.00  0.00    +0.000 C 
ATOM     10  O   UNL     1      63.027  64.816  71.921  0.00  0.00    +0.000 OA
ATOM     11  C   UNL     1      62.292  64.130  70.906  0.00  0.00    +0.000 C 
ATOM     12  C   UNL     1      61.849  63.746  71.487  0.00  0.00    +0.000 A 
ATOM     13  C   UNL     1      61.260  63.210  71.270  0.00  0.00    +0.000 A 
ATOM     14  C   UNL     1      60.817  62.827  71.849  0.00  0.00    +0.000 A 
ATOM     15  C   UNL     1      60.963  62.978  72.648  0.00  0.00    +0.000 A 
ATOM     16  C   UNL     1      61.552  63.513  72.865  0.00  0.00    +0.000 A 
ATOM     17  C   UNL     1      61.995  63.897  72.284  0.00  0.00    +0.000 A 
ATOM     18  C   UNL     1      62.147  63.978  70.108  0.00  0.00    +0.000 A 
ATOM     19  C   UNL     1      62.590  64.362  69.528  0.00  0.00    +0.000 A 
ATOM     20  C   UNL     1      62.444  64.211  68.730  0.00  0.00    +0.000 A 
ATOM     21  C   UNL     1      61.855  63.676  68.513  0.00  0.00    +0.000 A 
ATOM     22  C   UNL     1      61.412  63.292  69.093  0.00  0.00    +0.000 A 
ATOM     23  C   UNL     1      61.558  63.443  69.892  0.00  0.00    +0.000 A 
ENDROOT
TORSDOF 0
ENDMDL
MODEL 8
REMARK VINA RESULT:   -11.089      3.662      5.495
REMARK INTER + INTRA:         -11.089
REMARK INTER:                 -11.089
REMARK INTRA:                   0.000
REMARK UNBOUND:                 0.000
ROOT
REMARK  Name = tifenamil
REMARK                            x       y       z     vdW  Elec       q    Type
REMARK                         _______ _______ _______ _____ _____    ______ ____
ATOM      1  C   UNL     1      58.701  67.685  72.039  0.00  0.00    +0.000 C 
ATOM      2  C   UNL     1      58.939  67.026  71.604  0.00  0.00    +0.000 C 
ATOM      3  N   UNL     1      59.334  66.406  71.978  0.00  0.00    +0.000 NA
ATOM      4  C   UNL     1      59.489  66.444  72.787  0.00  0.00    +0.000 C 
ATOM      5  C   UNL     1      59.250  67.103  73.222  0.00  0.00    +0.000 C 
ATOM      6  C   UNL     1      59.573  65.747  71.544  0.00  0.00    +0.000 C 
ATOM      7  C   UNL     1      59.967  65.127  71.918  0.00  0.00    +0.000 C 
ATOM      8  S   UNL     1      60.206  64.467  71.482  0.00  0.00    +0.000 S 
ATOM      9  C   UNL     1      60.601  63.846  71.857  0.00  0.00    +0.000 C 
ATOM     10  O   UNL     1      60.756  63.885  72.666  0.00  0.00    +0.000 OA
ATOM     11  C   UNL     1      60.839  63.187  71.422  0.00  0.00    +0.000 C 
ATOM     12  C   UNL     1      61.234  62.567  71.797  0.00  0.00    +0.000 A 
ATOM     13  C   UNL     1      61.473  61.908  71.362  0.00  0.00    +0.000 A 
ATOM     14  C   UNL     1      61.867  61.288  71.736  0.00  0.00    +0.000 A 
ATOM     15  C   UNL     1      62.023  61.326  72.545  0.00  0.00    +0.000 A 
ATOM     16  C   UNL     1      61.784  61.985  72.980  0.00  0.00    +0.000 A 
ATOM     17  C   UNL     1      61.389  62.606  72.606  0.00  0.00    +0.000 A 
ATOM     18  C   UNL     1      60.684  63.149  70.612  0.00  0.00    +0.000 A 
ATOM     19  C   UNL     1      60.289  63.769  70.239  0.00  0.00    +0.000 A 
ATOM     20  C   UNL     1      60.134  63.730  69.429  0.00  0.00    +0.000 A 
ATOM     21  C   UNL     1      60.372  63.071  68.994  0.00  0.00    +0.000 A 
ATOM     22  C   UNL     1      60.767  62.451  69.369  0.00  0.00    +0.000 A 
ATOM     23  C   UNL     1      60.923  62.490  70.178  0.00  0.00    +0.000 A 
ENDROOT
TORSDOF 0
ENDMDL
MODEL 9
REMARK VINA RESULT:   -11.055      4.531      6.936
REMARK INTER + INTRA:         -11.055
REMARK INTER:                 -11.055
REMARK INTRA:                   0.000
REMARK UNBOUND:                 0.000
ROOT
REMARK  Name = tifenamil
REMARK                            x       y       z     vdW  Elec       q    Type
REMARK                         _______ _______ _______ _____ _____    ______ ____
ATOM      1  C   UNL     1      60.127  62.584  71.356  0.00  0.00    +0.000 C 
ATOM      2  C   UNL     1      60.402  63.322  71.601  0.00  0.00    +0.000 C 
ATOM      3  N   UNL     1      61.157  63.573  71.387  0.00  0.00    +0.000 NA
ATOM      4  C   UNL     1      61.639  63.086  70.927  0.00  0.00    +0.000 C 
ATOM      5  C   UNL     1      61.364  62.348  70.682  0.00  0.00    +0.000 C 
ATOM      6  C   UNL     1      61.433  64.311  71.632  0.00  0.00    +0.000 C 
ATOM      7  C   UNL     1      62.189  64.562  71.418  0.00  0.00    +0.000 C 
ATOM      8  S   UNL     1      62.464  65.301  71.663  0.00  0.00    +0.000 S 
ATOM      9  C   UNL     1      63.220  65.551  71.449  0.00  0.00    +0.000 C 
ATOM     10  O   UNL     1      63.701  65.064  70.989  0.00  0.00    +0.000 OA
ATOM     11  C   UNL     1      63.495  66.289  71.694  0.00  0.00    +0.000 C 
ATOM     12  C   UNL     1      64.251  66.540  71.479  0.00  0.00    +0.000 A 
ATOM     13  C   UNL     1      64.526  67.278  71.725  0.00  0.00    +0.000 A 
ATOM     14  C   UNL     1      65.282  67.529  71.511  0.00  0.00    +0.000 A 
ATOM     15  C   UNL     1      65.763  67.041  71.050  0.00  0.00    +0.000 A 
ATOM     16  C   UNL     1      65.489  66.303  70.805  0.00  0.00    +0.000 A 
ATOM     17  C   UNL     1      64.732  66.053  71.020  0.00  0.00    +0.000 A 
ATOM     18  C   UNL     1      63.013  66.777  72.154  0.00  0.00    +0.000 A 
ATOM     19  C   UNL     1      62.258  66.526  72.368  0.00  0.00    +0.000 A 
ATOM     20  C   UNL     1      61.776  67.014  72.828  0.00  0.00    +0.000 A 
ATOM     21  C   UNL     1      62.051  67.752  73.074  0.00  0.00    +0.000 A 
ATOM     22  C   UNL     1      62.807  68.002  72.859  0.00  0.00    +0.000 A 
ATOM     23  C   UNL     1      63.289  67.515  72.399  0.00  0.00    +0.000 A 
ENDROOT
TORSDOF 0
ENDMDL
