MODEL 1
REMARK VINA RESULT:    -5.410      0.000      0.000
REMARK INTER + INTRA:          -5.410
REMARK INTER:                  -5.410
REMARK INTRA:                   0.000
REMARK UNBOUND:                 0.000
ROOT
REMARK  Name = tiopronin
REMARK                            x       y       z     vdW  Elec       q    Type
REMARK                         _______ _______ _______ _____ _____    ______ ____
ATOM      1  C   UNL     1      62.117  61.624  63.906  0.00  0.00    +0.000 C 
ATOM      2  C   UNL     1      61.665  61.668  64.595  0.00  0.00    +0.000 C 
ATOM      3  S   UNL     1      60.948  61.263  64.644  0.00  0.00    +0.000 S 
ATOM      4  C   UNL     1      61.929  62.117  65.234  0.00  0.00    +0.000 C 
ATOM      5  O   UNL     1      62.646  62.523  65.185  0.00  0.00    +0.000 OA
ATOM      6  N   UNL     1      61.477  62.161  65.923  0.00  0.00    +0.000 NA
ATOM      7  C   UNL     1      61.741  62.610  66.562  0.00  0.00    +0.000 C 
ATOM      8  C   UNL     1      61.289  62.654  67.251  0.00  0.00    +0.000 C 
ATOM      9  O   UNL     1      61.553  63.103  67.890  0.00  0.00    +0.000 OA
ATOM     10  O   UNL     1      60.572  62.248  67.300  0.00  0.00    +0.000 OA
ENDROOT
TORSDOF 0
ENDMDL
MODEL 2
REMARK VINA RESULT:    -5.354      1.687      2.881
REMARK INTER + INTRA:          -5.354
REMARK INTER:                  -5.354
REMARK INTRA:                   0.000
REMARK UNBOUND:                 0.000
ROOT
REMARK  Name = tiopronin
REMARK                            x       y       z     vdW  Elec       q    Type
REMARK                         _______ _______ _______ _____ _____    ______ ____
ATOM      1  C   UNL     1      59.391  62.225  66.803  0.00  0.00    +0.000 C 
ATOM      2  C   UNL     1      60.165  62.347  66.544  0.00  0.00    +0.000 C 
ATOM      3  S   UNL     1      60.690  62.784  67.007  0.00  0.00    +0.000 S 
ATOM      4  C   UNL     1      60.414  62.032  65.824  0.00  0.00    +0.000 C 
ATOM      5  O   UNL     1      59.890  61.595  65.361  0.00  0.00    +0.000 OA
ATOM      6  N   UNL     1      61.188  62.154  65.565  0.00  0.00    +0.000 NA
ATOM      7  C   UNL     1      61.438  61.840  64.845  0.00  0.00    +0.000 C 
ATOM      8  C   UNL     1      62.212  61.962  64.586  0.00  0.00    +0.000 C 
ATOM      9  O   UNL     1      62.461  61.647  63.866  0.00  0.00    +0.000 OA
ATOM     10  O   UNL     1      62.736  62.399  65.049  0.00  0.00    +0.000 OA
ENDROOT
TORSDOF 0
ENDMDL
MODEL 3
REMARK VINA RESULT:    -5.202      1.365      2.785
REMARK INTER + INTRA:          -5.202
REMARK INTER:                  -5.202
REMARK INTRA:                   0.000
REMARK UNBOUND:                 0.000
ROOT
REMARK  Name = tiopronin
REMARK                            x       y       z     vdW  Elec       q    Type
REMARK                         _______ _______ _______ _____ _____    ______ ____
ATOM      1  C   UNL     1      60.098  62.764  67.514  0.00  0.00    +0.000 C 
ATOM      2  C   UNL     1      60.155  62.432  66.760  0.00  0.00    +0.000 C 
ATOM      3  S   UNL     1      59.484  62.117  66.398  0.00  0.00    +0.000 S 
ATOM      4  C   UNL     1      60.880  62.416  66.370  0.00  0.00    +0.000 C 
ATOM      5  O   UNL     1      61.551  62.731  66.733  0.00  0.00    +0.000 OA
ATOM      6  N   UNL     1      60.937  62.084  65.616  0.00  0.00    +0.000 NA
ATOM      7  C   UNL     1      61.663  62.068  65.226  0.00  0.00    +0.000 C 
ATOM      8  C   UNL     1      61.719  61.736  64.472  0.00  0.00    +0.000 C 
ATOM      9  O   UNL     1      62.445  61.720  64.082  0.00  0.00    +0.000 OA
ATOM     10  O   UNL     1      61.048  61.421  64.110  0.00  0.00    +0.000 OA
ENDROOT
TORSDOF 0
ENDMDL
MODEL 4
REMARK VINA RESULT:    -4.740      2.520      3.941
REMARK INTER + INTRA:          -4.740
REMARK INTER:                  -4.740
REMARK INTRA:                   0.000
REMARK UNBOUND:                 0.000
ROOT
REMARK  Name = tiopronin
REMARK                            x       y       z     vdW  Elec       q    Type
REMARK                         _______ _______ _______ _____ _____    ______ ____
ATOM      1  C   UNL     1      60.496  62.350  70.415  0.00  0.00    +0.000 C 
ATOM      2  C   UNL     1      60.824  62.630  69.712  0.00  0.00    +0.000 C 
ATOM      3  S   UNL     1      61.297  63.306  69.719  0.00  0.00    +0.000 S 
ATOM      4  C   UNL     1      60.679  62.236  69.003  0.00  0.00    +0.000 C 
ATOM      5  O   UNL     1      60.206  61.561  68.996  0.00  0.00    +0.000 OA
ATOM      6  N   UNL     1      61.006  62.517  68.299  0.00  0.00    +0.000 NA
ATOM      7  C   UNL     1      60.861  62.123  67.590  0.00  0.00    +0.000 C 
ATOM      8  C   UNL     1      61.189  62.404  66.886  0.00  0.00    +0.000 C 
ATOM      9  O   UNL     1      61.044  62.010  66.177  0.00  0.00    +0.000 OA
ATOM     10  O   UNL     1      61.662  63.079  66.893  0.00  0.00    +0.000 OA
ENDROOT
TORSDOF 0
ENDMDL
MODEL 5
REMARK VINA RESULT:    -4.639      1.646      2.010
REMARK INTER + INTRA:          -4.639
REMARK INTER:                  -4.639
REMARK INTRA:                   0.000
REMARK UNBOUND:                 0.000
ROOT
REMARK  Name = tiopronin
REMARK                            x       y       z     vdW  Elec       q    Type
REMARK                         _______ _______ _______ _____ _____    ______ ____
ATOM      1  C   UNL     1      60.751  61.977  65.692  0.00  0.00    +0.000 C 
ATOM      2  C   UNL     1      60.607  62.328  66.425  0.00  0.00    +0.000 C 
ATOM      3  S   UNL     1      59.842  62.335  66.735  0.00  0.00    +0.000 S 
ATOM      4  C   UNL     1      61.226  62.671  66.847  0.00  0.00    +0.000 C 
ATOM      5  O   UNL     1      61.990  62.664  66.537  0.00  0.00    +0.000 OA
ATOM      6  N   UNL     1      61.082  63.022  67.580  0.00  0.00    +0.000 NA
ATOM      7  C   UNL     1      61.701  63.365  68.003  0.00  0.00    +0.000 C 
ATOM      8  C   UNL     1      61.558  63.716  68.736  0.00  0.00    +0.000 C 
ATOM      9  O   UNL     1      62.177  64.059  69.158  0.00  0.00    +0.000 OA
ATOM     10  O   UNL     1      60.793  63.723  69.046  0.00  0.00    +0.000 OA
ENDROOT
TORSDOF 0
ENDMDL
MODEL 6
REMARK VINA RESULT:    -4.580      6.063      6.892
REMARK INTER + INTRA:          -4.580
REMARK INTER:                  -4.580
REMARK INTRA:                   0.000
REMARK UNBOUND:                 0.000
ROOT
REMARK  Name = tiopronin
REMARK                            x       y       z     vdW  Elec       q    Type
REMARK                         _______ _______ _______ _____ _____    ______ ____
ATOM      1  C   UNL     1      66.002  67.529  70.283  0.00  0.00    +0.000 C 
ATOM      2  C   UNL     1      65.519  66.920  70.558  0.00  0.00    +0.000 C 
ATOM      3  S   UNL     1      65.430  66.799  71.369  0.00  0.00    +0.000 S 
ATOM      4  C   UNL     1      65.125  66.432  70.023  0.00  0.00    +0.000 C 
ATOM      5  O   UNL     1      65.214  66.553  69.212  0.00  0.00    +0.000 OA
ATOM      6  N   UNL     1      64.642  65.822  70.298  0.00  0.00    +0.000 NA
ATOM      7  C   UNL     1      64.248  65.334  69.763  0.00  0.00    +0.000 C 
ATOM      8  C   UNL     1      63.764  64.724  70.038  0.00  0.00    +0.000 C 
ATOM      9  O   UNL     1      63.371  64.236  69.503  0.00  0.00    +0.000 OA
ATOM     10  O   UNL     1      63.676  64.603  70.849  0.00  0.00    +0.000 OA
ENDROOT
TORSDOF 0
ENDMDL
MODEL 7
REMARK VINA RESULT:    -4.545      4.295      5.241
REMARK INTER + INTRA:          -4.545
REMARK INTER:                  -4.545
REMARK INTRA:                   0.000
REMARK UNBOUND:                 0.000
ROOT
REMARK  Name = tiopronin
REMARK                            x       y       z     vdW  Elec       q    Type
REMARK                         _______ _______ _______ _____ _____    ______ ____
ATOM      1  C   UNL     1      60.491  62.110  68.979  0.00  0.00    +0.000 C 
ATOM      2  C   UNL     1      60.855  62.561  69.567  0.00  0.00    +0.000 C 
ATOM      3  S   UNL     1      61.202  63.284  69.376  0.00  0.00    +0.000 S 
ATOM      4  C   UNL     1      60.871  62.288  70.345  0.00  0.00    +0.000 C 
ATOM      5  O   UNL     1      60.524  61.564  70.535  0.00  0.00    +0.000 OA
ATOM      6  N   UNL     1      61.235  62.738  70.933  0.00  0.00    +0.000 NA
ATOM      7  C   UNL     1      61.251  62.466  71.711  0.00  0.00    +0.000 C 
ATOM      8  C   UNL     1      61.615  62.916  72.299  0.00  0.00    +0.000 C 
ATOM      9  O   UNL     1      61.631  62.643  73.077  0.00  0.00    +0.000 OA
ATOM     10  O   UNL     1      61.962  63.640  72.108  0.00  0.00    +0.000 OA
ENDROOT
TORSDOF 0
ENDMDL
MODEL 8
REMARK VINA RESULT:    -4.508      3.973      5.412
REMARK INTER + INTRA:          -4.508
REMARK INTER:                  -4.508
REMARK INTRA:                   0.000
REMARK UNBOUND:                 0.000
ROOT
REMARK  Name = tiopronin
REMARK                            x       y       z     vdW  Elec       q    Type
REMARK                         _______ _______ _______ _____ _____    ______ ____
ATOM      1  C   UNL     1      61.256  63.116  72.339  0.00  0.00    +0.000 C 
ATOM      2  C   UNL     1      61.359  63.135  71.520  0.00  0.00    +0.000 C 
ATOM      3  S   UNL     1      61.949  63.608  71.191  0.00  0.00    +0.000 S 
ATOM      4  C   UNL     1      60.873  62.682  71.032  0.00  0.00    +0.000 C 
ATOM      5  O   UNL     1      60.283  62.209  71.362  0.00  0.00    +0.000 OA
ATOM      6  N   UNL     1      60.977  62.701  70.214  0.00  0.00    +0.000 NA
ATOM      7  C   UNL     1      60.491  62.248  69.726  0.00  0.00    +0.000 C 
ATOM      8  C   UNL     1      60.595  62.267  68.907  0.00  0.00    +0.000 C 
ATOM      9  O   UNL     1      60.109  61.814  68.419  0.00  0.00    +0.000 OA
ATOM     10  O   UNL     1      61.185  62.740  68.577  0.00  0.00    +0.000 OA
ENDROOT
TORSDOF 0
ENDMDL
MODEL 9
REMARK VINA RESULT:    -4.485      7.362      7.733
REMARK INTER + INTRA:          -4.485
REMARK INTER:                  -4.485
REMARK INTRA:                   0.000
REMARK UNBOUND:                 0.000
ROOT
REMARK  Name = tiopronin
REMARK                            x       y       z     vdW  Elec       q    Type
REMARK                         _______ _______ _______ _____ _____    ______ ____
ATOM      1  C   UNL     1      66.043  67.339  70.245  0.00  0.00    +0.000 C 
ATOM      2  C   UNL     1      65.343  66.929  70.402  0.00  0.00    +0.000 C 
ATOM      3  S   UNL     1      65.023  66.428  69.831  0.00  0.00    +0.000 S 
ATOM      4  C   UNL     1      64.965  67.021  71.129  0.00  0.00    +0.000 C 
ATOM      5  O   UNL     1      65.285  67.523  71.700  0.00  0.00    +0.000 OA
ATOM      6  N   UNL     1      64.266  66.612  71.285  0.00  0.00    +0.000 NA
ATOM      7  C   UNL     1      63.888  66.704  72.012  0.00  0.00    +0.000 C 
ATOM      8  C   UNL     1      63.189  66.294  72.169  0.00  0.00    +0.000 C 
ATOM      9  O   UNL     1      62.810  66.386  72.895  0.00  0.00    +0.000 OA
ATOM     10  O   UNL     1      62.868  65.792  71.598  0.00  0.00    +0.000 OA
ENDROOT
TORSDOF 0
ENDMDL
