MODEL 1
REMARK VINA RESULT:   -13.288      0.000      0.000
REMARK INTER + INTRA:         -13.288
REMARK INTER:                 -13.288
REMARK INTRA:                   0.000
REMARK UNBOUND:                 0.000
ROOT
REMARK  Name = tiracizine
REMARK                            x       y       z     vdW  Elec       q    Type
REMARK                         _______ _______ _______ _____ _____    ______ ____
ATOM      1  C   UNL     1      61.774  62.513  64.846  0.00  0.00    +0.000 C 
ATOM      2  C   UNL     1      61.466  62.315  65.586  0.00  0.00    +0.000 C 
ATOM      3  O   UNL     1      61.711  62.729  66.256  0.00  0.00    +0.000 OA
ATOM      4  C   UNL     1      61.403  62.531  66.997  0.00  0.00    +0.000 C 
ATOM      5  O   UNL     1      60.852  61.921  67.066  0.00  0.00    +0.000 OA
ATOM      6  N   UNL     1      61.648  62.944  67.668  0.00  0.00    +0.000 NA
ATOM      7  C   UNL     1      61.340  62.747  68.408  0.00  0.00    +0.000 A 
ATOM      8  C   UNL     1      60.789  62.137  68.477  0.00  0.00    +0.000 A 
ATOM      9  C   UNL     1      60.483  61.940  69.216  0.00  0.00    +0.000 A 
ATOM     10  C   UNL     1      60.726  62.353  69.888  0.00  0.00    +0.000 A 
ATOM     11  C   UNL     1      60.354  62.070  70.568  0.00  0.00    +0.000 C 
ATOM     12  C   UNL     1      60.442  62.328  71.346  0.00  0.00    +0.000 C 
ATOM     13  C   UNL     1      60.923  62.931  71.638  0.00  0.00    +0.000 A 
ATOM     14  C   UNL     1      61.435  63.426  71.223  0.00  0.00    +0.000 A 
ATOM     15  C   UNL     1      61.870  64.001  71.625  0.00  0.00    +0.000 A 
ATOM     16  C   UNL     1      61.792  64.079  72.443  0.00  0.00    +0.000 A 
ATOM     17  C   UNL     1      61.280  63.584  72.858  0.00  0.00    +0.000 A 
ATOM     18  C   UNL     1      60.845  63.010  72.456  0.00  0.00    +0.000 A 
ATOM     19  N   UNL     1      61.593  63.441  70.413  0.00  0.00    +0.000 N 
ATOM     20  C   UNL     1      62.138  64.008  70.165  0.00  0.00    +0.000 C 
ATOM     21  O   UNL     1      62.335  64.068  69.366  0.00  0.00    +0.000 OA
ATOM     22  C   UNL     1      62.487  64.514  70.716  0.00  0.00    +0.000 C 
ATOM     23  N   UNL     1      63.033  65.081  70.467  0.00  0.00    +0.000 NA
ATOM     24  C   UNL     1      63.381  65.588  71.018  0.00  0.00    +0.000 C 
ATOM     25  C   UNL     1      63.230  65.142  69.668  0.00  0.00    +0.000 C 
ATOM     26  C   UNL     1      61.277  62.963  69.819  0.00  0.00    +0.000 A 
ATOM     27  C   UNL     1      61.585  63.160  69.079  0.00  0.00    +0.000 A 
ENDROOT
TORSDOF 0
ENDMDL
MODEL 2
REMARK VINA RESULT:   -11.681      2.376      4.354
REMARK INTER + INTRA:         -11.681
REMARK INTER:                 -11.681
REMARK INTRA:                   0.000
REMARK UNBOUND:                 0.000
ROOT
REMARK  Name = tiracizine
REMARK                            x       y       z     vdW  Elec       q    Type
REMARK                         _______ _______ _______ _____ _____    ______ ____
ATOM      1  C   UNL     1      59.906  61.836  70.927  0.00  0.00    +0.000 C 
ATOM      2  C   UNL     1      60.613  62.179  70.677  0.00  0.00    +0.000 C 
ATOM      3  O   UNL     1      60.858  62.897  71.000  0.00  0.00    +0.000 OA
ATOM      4  C   UNL     1      61.567  63.240  70.750  0.00  0.00    +0.000 C 
ATOM      5  O   UNL     1      62.028  62.865  70.178  0.00  0.00    +0.000 OA
ATOM      6  N   UNL     1      61.812  63.959  71.073  0.00  0.00    +0.000 NA
ATOM      7  C   UNL     1      62.520  64.302  70.823  0.00  0.00    +0.000 A 
ATOM      8  C   UNL     1      62.982  63.927  70.251  0.00  0.00    +0.000 A 
ATOM      9  C   UNL     1      63.689  64.270  70.002  0.00  0.00    +0.000 A 
ATOM     10  C   UNL     1      63.935  64.989  70.324  0.00  0.00    +0.000 A 
ATOM     11  C   UNL     1      64.653  65.234  70.001  0.00  0.00    +0.000 C 
ATOM     12  C   UNL     1      65.087  65.915  70.170  0.00  0.00    +0.000 C 
ATOM     13  C   UNL     1      64.910  66.519  70.703  0.00  0.00    +0.000 A 
ATOM     14  C   UNL     1      64.256  66.591  71.200  0.00  0.00    +0.000 A 
ATOM     15  C   UNL     1      64.184  67.247  71.696  0.00  0.00    +0.000 A 
ATOM     16  C   UNL     1      64.768  67.830  71.695  0.00  0.00    +0.000 A 
ATOM     17  C   UNL     1      65.422  67.757  71.199  0.00  0.00    +0.000 A 
ATOM     18  C   UNL     1      65.494  67.103  70.702  0.00  0.00    +0.000 A 
ATOM     19  N   UNL     1      63.616  66.077  71.286  0.00  0.00    +0.000 N 
ATOM     20  C   UNL     1      63.044  66.306  71.834  0.00  0.00    +0.000 C 
ATOM     21  O   UNL     1      62.382  65.831  71.962  0.00  0.00    +0.000 OA
ATOM     22  C   UNL     1      63.134  67.011  72.254  0.00  0.00    +0.000 C 
ATOM     23  N   UNL     1      62.560  67.240  72.802  0.00  0.00    +0.000 NA
ATOM     24  C   UNL     1      62.650  67.944  73.222  0.00  0.00    +0.000 C 
ATOM     25  C   UNL     1      61.899  66.765  72.931  0.00  0.00    +0.000 C 
ATOM     26  C   UNL     1      63.474  65.364  70.896  0.00  0.00    +0.000 A 
ATOM     27  C   UNL     1      62.766  65.020  71.146  0.00  0.00    +0.000 A 
ENDROOT
TORSDOF 0
ENDMDL
MODEL 3
REMARK VINA RESULT:   -11.367      2.600      4.341
REMARK INTER + INTRA:         -11.367
REMARK INTER:                 -11.367
REMARK INTRA:                   0.000
REMARK UNBOUND:                 0.000
ROOT
REMARK  Name = tiracizine
REMARK                            x       y       z     vdW  Elec       q    Type
REMARK                         _______ _______ _______ _____ _____    ______ ____
ATOM      1  C   UNL     1      60.764  61.347  70.635  0.00  0.00    +0.000 C 
ATOM      2  C   UNL     1      60.649  62.070  71.015  0.00  0.00    +0.000 C 
ATOM      3  O   UNL     1      61.254  62.631  71.022  0.00  0.00    +0.000 OA
ATOM      4  C   UNL     1      61.139  63.355  71.403  0.00  0.00    +0.000 C 
ATOM      5  O   UNL     1      60.421  63.517  71.775  0.00  0.00    +0.000 OA
ATOM      6  N   UNL     1      61.744  63.917  71.410  0.00  0.00    +0.000 NA
ATOM      7  C   UNL     1      61.630  64.640  71.790  0.00  0.00    +0.000 A 
ATOM      8  C   UNL     1      60.912  64.802  72.163  0.00  0.00    +0.000 A 
ATOM      9  C   UNL     1      60.798  65.525  72.543  0.00  0.00    +0.000 A 
ATOM     10  C   UNL     1      61.402  66.087  72.551  0.00  0.00    +0.000 A 
ATOM     11  C   UNL     1      61.176  66.768  72.958  0.00  0.00    +0.000 C 
ATOM     12  C   UNL     1      61.612  67.455  73.093  0.00  0.00    +0.000 C 
ATOM     13  C   UNL     1      62.381  67.631  72.854  0.00  0.00    +0.000 A 
ATOM     14  C   UNL     1      62.905  67.164  72.422  0.00  0.00    +0.000 A 
ATOM     15  C   UNL     1      63.658  67.448  72.240  0.00  0.00    +0.000 A 
ATOM     16  C   UNL     1      63.887  68.201  72.491  0.00  0.00    +0.000 A 
ATOM     17  C   UNL     1      63.362  68.667  72.924  0.00  0.00    +0.000 A 
ATOM     18  C   UNL     1      62.610  68.383  73.106  0.00  0.00    +0.000 A 
ATOM     19  N   UNL     1      62.789  66.405  72.121  0.00  0.00    +0.000 N 
ATOM     20  C   UNL     1      63.426  66.082  71.707  0.00  0.00    +0.000 C 
ATOM     21  O   UNL     1      63.367  65.326  71.384  0.00  0.00    +0.000 OA
ATOM     22  C   UNL     1      64.122  66.516  71.618  0.00  0.00    +0.000 C 
ATOM     23  N   UNL     1      64.760  66.193  71.205  0.00  0.00    +0.000 NA
ATOM     24  C   UNL     1      65.455  66.627  71.116  0.00  0.00    +0.000 C 
ATOM     25  C   UNL     1      64.701  65.437  70.881  0.00  0.00    +0.000 C 
ATOM     26  C   UNL     1      62.120  65.925  72.178  0.00  0.00    +0.000 A 
ATOM     27  C   UNL     1      62.234  65.202  71.798  0.00  0.00    +0.000 A 
ENDROOT
TORSDOF 0
ENDMDL
MODEL 4
REMARK VINA RESULT:   -11.316      2.005      2.986
REMARK INTER + INTRA:         -11.316
REMARK INTER:                 -11.316
REMARK INTRA:                   0.000
REMARK UNBOUND:                 0.000
ROOT
REMARK  Name = tiracizine
REMARK                            x       y       z     vdW  Elec       q    Type
REMARK                         _______ _______ _______ _____ _____    ______ ____
ATOM      1  C   UNL     1      59.408  62.377  66.654  0.00  0.00    +0.000 C 
ATOM      2  C   UNL     1      60.055  62.580  67.122  0.00  0.00    +0.000 C 
ATOM      3  O   UNL     1      60.001  63.215  67.646  0.00  0.00    +0.000 OA
ATOM      4  C   UNL     1      60.649  63.419  68.115  0.00  0.00    +0.000 C 
ATOM      5  O   UNL     1      61.351  62.988  68.060  0.00  0.00    +0.000 OA
ATOM      6  N   UNL     1      60.595  64.054  68.639  0.00  0.00    +0.000 NA
ATOM      7  C   UNL     1      61.243  64.258  69.108  0.00  0.00    +0.000 A 
ATOM      8  C   UNL     1      61.944  63.827  69.053  0.00  0.00    +0.000 A 
ATOM      9  C   UNL     1      62.591  64.031  69.521  0.00  0.00    +0.000 A 
ATOM     10  C   UNL     1      62.538  64.666  70.046  0.00  0.00    +0.000 A 
ATOM     11  C   UNL     1      63.243  64.776  70.459  0.00  0.00    +0.000 C 
ATOM     12  C   UNL     1      63.421  65.344  71.030  0.00  0.00    +0.000 C 
ATOM     13  C   UNL     1      62.938  65.942  71.329  0.00  0.00    +0.000 A 
ATOM     14  C   UNL     1      62.158  66.120  71.130  0.00  0.00    +0.000 A 
ATOM     15  C   UNL     1      61.771  66.750  71.499  0.00  0.00    +0.000 A 
ATOM     16  C   UNL     1      62.166  67.200  72.066  0.00  0.00    +0.000 A 
ATOM     17  C   UNL     1      62.946  67.022  72.265  0.00  0.00    +0.000 A 
ATOM     18  C   UNL     1      63.333  66.393  71.896  0.00  0.00    +0.000 A 
ATOM     19  N   UNL     1      61.667  65.744  70.584  0.00  0.00    +0.000 N 
ATOM     20  C   UNL     1      60.907  66.056  70.510  0.00  0.00    +0.000 C 
ATOM     21  O   UNL     1      60.373  65.721  69.978  0.00  0.00    +0.000 OA
ATOM     22  C   UNL     1      60.682  66.705  70.968  0.00  0.00    +0.000 C 
ATOM     23  N   UNL     1      59.921  67.017  70.894  0.00  0.00    +0.000 NA
ATOM     24  C   UNL     1      59.696  67.665  71.352  0.00  0.00    +0.000 C 
ATOM     25  C   UNL     1      59.387  66.682  70.363  0.00  0.00    +0.000 C 
ATOM     26  C   UNL     1      61.837  65.097  70.101  0.00  0.00    +0.000 A 
ATOM     27  C   UNL     1      61.189  64.893  69.632  0.00  0.00    +0.000 A 
ENDROOT
TORSDOF 0
ENDMDL
MODEL 5
REMARK VINA RESULT:   -10.373      2.589      3.922
REMARK INTER + INTRA:         -10.373
REMARK INTER:                 -10.373
REMARK INTRA:                   0.000
REMARK UNBOUND:                 0.000
ROOT
REMARK  Name = tiracizine
REMARK                            x       y       z     vdW  Elec       q    Type
REMARK                         _______ _______ _______ _____ _____    ______ ____
ATOM      1  C   UNL     1      62.286  60.447  72.242  0.00  0.00    +0.000 C 
ATOM      2  C   UNL     1      61.875  60.978  71.762  0.00  0.00    +0.000 C 
ATOM      3  O   UNL     1      61.912  61.787  71.919  0.00  0.00    +0.000 OA
ATOM      4  C   UNL     1      61.500  62.318  71.439  0.00  0.00    +0.000 C 
ATOM      5  O   UNL     1      61.053  62.040  70.804  0.00  0.00    +0.000 OA
ATOM      6  N   UNL     1      61.537  63.128  71.595  0.00  0.00    +0.000 NA
ATOM      7  C   UNL     1      61.126  63.659  71.115  0.00  0.00    +0.000 A 
ATOM      8  C   UNL     1      60.679  63.381  70.480  0.00  0.00    +0.000 A 
ATOM      9  C   UNL     1      60.268  63.912  70.002  0.00  0.00    +0.000 A 
ATOM     10  C   UNL     1      60.304  64.722  70.157  0.00  0.00    +0.000 A 
ATOM     11  C   UNL     1      59.857  65.153  69.615  0.00  0.00    +0.000 C 
ATOM     12  C   UNL     1      59.746  65.970  69.575  0.00  0.00    +0.000 C 
ATOM     13  C   UNL     1      60.055  66.556  70.066  0.00  0.00    +0.000 A 
ATOM     14  C   UNL     1      60.552  66.471  70.718  0.00  0.00    +0.000 A 
ATOM     15  C   UNL     1      60.800  67.137  71.138  0.00  0.00    +0.000 A 
ATOM     16  C   UNL     1      60.551  67.888  70.904  0.00  0.00    +0.000 A 
ATOM     17  C   UNL     1      60.054  67.972  70.251  0.00  0.00    +0.000 A 
ATOM     18  C   UNL     1      59.806  67.307  69.831  0.00  0.00    +0.000 A 
ATOM     19  N   UNL     1      60.862  65.778  71.042  0.00  0.00    +0.000 N 
ATOM     20  C   UNL     1      61.347  65.877  71.702  0.00  0.00    +0.000 C 
ATOM     21  O   UNL     1      61.685  65.220  72.068  0.00  0.00    +0.000 OA
ATOM     22  C   UNL     1      61.492  66.634  71.997  0.00  0.00    +0.000 C 
ATOM     23  N   UNL     1      61.977  66.732  72.658  0.00  0.00    +0.000 NA
ATOM     24  C   UNL     1      62.123  67.489  72.953  0.00  0.00    +0.000 C 
ATOM     25  C   UNL     1      62.316  66.075  73.023  0.00  0.00    +0.000 C 
ATOM     26  C   UNL     1      60.752  65.000  70.792  0.00  0.00    +0.000 A 
ATOM     27  C   UNL     1      61.163  64.468  71.271  0.00  0.00    +0.000 A 
ENDROOT
TORSDOF 0
ENDMDL
