MODEL 1
REMARK VINA RESULT:   -11.532      0.000      0.000
REMARK INTER + INTRA:         -11.532
REMARK INTER:                 -11.532
REMARK INTRA:                   0.000
REMARK UNBOUND:                 0.000
ROOT
REMARK  Name = tirbanibulin
REMARK                            x       y       z     vdW  Elec       q    Type
REMARK                         _______ _______ _______ _____ _____    ______ ____
ATOM      1  C   UNL     1      62.190  59.247  52.305  0.00  0.00    +0.000 C 
ATOM      2  C   UNL     1      61.756  58.672  51.905  0.00  0.00    +0.000 C 
ATOM      3  O   UNL     1      62.043  57.900  51.852  0.00  0.00    +0.000 OA
ATOM      4  C   UNL     1      62.765  57.704  52.201  0.00  0.00    +0.000 C 
ATOM      5  C   UNL     1      63.199  58.280  52.602  0.00  0.00    +0.000 C 
ATOM      6  N   UNL     1      62.911  59.051  52.653  0.00  0.00    +0.000 NA
ATOM      7  C   UNL     1      63.346  59.627  53.054  0.00  0.00    +0.000 C 
ATOM      8  C   UNL     1      63.059  60.399  53.106  0.00  0.00    +0.000 C 
ATOM      9  O   UNL     1      63.493  60.974  53.507  0.00  0.00    +0.000 OA
ATOM     10  C   UNL     1      63.206  61.746  53.559  0.00  0.00    +0.000 A 
ATOM     11  C   UNL     1      63.640  62.322  53.959  0.00  0.00    +0.000 A 
ATOM     12  C   UNL     1      63.353  63.093  54.011  0.00  0.00    +0.000 A 
ATOM     13  C   UNL     1      62.631  63.289  53.663  0.00  0.00    +0.000 A 
ATOM     14  C   UNL     1      62.197  62.714  53.262  0.00  0.00    +0.000 A 
ATOM     15  C   UNL     1      62.484  61.941  53.210  0.00  0.00    +0.000 A 
ATOM     16  C   UNL     1      62.344  64.060  53.715  0.00  0.00    +0.000 A 
ATOM     17  C   UNL     1      62.779  64.637  54.116  0.00  0.00    +0.000 A 
ATOM     18  N   UNL     1      62.491  65.408  54.167  0.00  0.00    +0.000 NA
ATOM     19  C   UNL     1      61.770  65.604  53.819  0.00  0.00    +0.000 A 
ATOM     20  C   UNL     1      61.335  65.028  53.418  0.00  0.00    +0.000 A 
ATOM     21  C   UNL     1      61.622  64.257  53.366  0.00  0.00    +0.000 A 
ATOM     22  C   UNL     1      61.482  66.376  53.871  0.00  0.00    +0.000 C 
ATOM     23  C   UNL     1      61.917  66.952  54.271  0.00  0.00    +0.000 C 
ATOM     24  O   UNL     1      62.639  66.756  54.620  0.00  0.00    +0.000 OA
ATOM     25  N   UNL     1      61.630  67.723  54.324  0.00  0.00    +0.000 NA
ATOM     26  C   UNL     1      62.064  68.298  54.724  0.00  0.00    +0.000 C 
ATOM     27  C   UNL     1      61.777  69.070  54.776  0.00  0.00    +0.000 A 
ATOM     28  C   UNL     1      62.212  69.646  55.177  0.00  0.00    +0.000 A 
ATOM     29  C   UNL     1      61.924  70.417  55.229  0.00  0.00    +0.000 A 
ATOM     30  C   UNL     1      61.202  70.614  54.880  0.00  0.00    +0.000 A 
ATOM     31  C   UNL     1      60.768  70.038  54.479  0.00  0.00    +0.000 A 
ATOM     32  C   UNL     1      61.055  69.266  54.427  0.00  0.00    +0.000 A 
ENDROOT
TORSDOF 0
ENDMDL
MODEL 2
REMARK VINA RESULT:   -11.465      1.392      8.207
REMARK INTER + INTRA:         -11.465
REMARK INTER:                 -11.465
REMARK INTRA:                   0.000
REMARK UNBOUND:                 0.000
ROOT
REMARK  Name = tirbanibulin
REMARK                            x       y       z     vdW  Elec       q    Type
REMARK                         _______ _______ _______ _____ _____    ______ ____
ATOM      1  C   UNL     1      60.248  69.601  53.608  0.00  0.00    +0.000 C 
ATOM      2  C   UNL     1      59.753  70.119  53.199  0.00  0.00    +0.000 C 
ATOM      3  O   UNL     1      59.686  70.905  53.440  0.00  0.00    +0.000 OA
ATOM      4  C   UNL     1      60.116  71.173  54.092  0.00  0.00    +0.000 C 
ATOM      5  C   UNL     1      60.611  70.656  54.501  0.00  0.00    +0.000 C 
ATOM      6  N   UNL     1      60.677  69.870  54.259  0.00  0.00    +0.000 NA
ATOM      7  C   UNL     1      61.172  69.353  54.669  0.00  0.00    +0.000 C 
ATOM      8  C   UNL     1      61.238  68.567  54.428  0.00  0.00    +0.000 C 
ATOM      9  O   UNL     1      61.733  68.050  54.837  0.00  0.00    +0.000 OA
ATOM     10  C   UNL     1      61.799  67.263  54.595  0.00  0.00    +0.000 A 
ATOM     11  C   UNL     1      62.294  66.746  55.005  0.00  0.00    +0.000 A 
ATOM     12  C   UNL     1      62.360  65.961  54.763  0.00  0.00    +0.000 A 
ATOM     13  C   UNL     1      61.931  65.691  54.112  0.00  0.00    +0.000 A 
ATOM     14  C   UNL     1      61.436  66.208  53.702  0.00  0.00    +0.000 A 
ATOM     15  C   UNL     1      61.370  66.995  53.944  0.00  0.00    +0.000 A 
ATOM     16  C   UNL     1      61.997  64.906  53.870  0.00  0.00    +0.000 A 
ATOM     17  C   UNL     1      62.492  64.388  54.280  0.00  0.00    +0.000 A 
ATOM     18  N   UNL     1      62.558  63.602  54.038  0.00  0.00    +0.000 NA
ATOM     19  C   UNL     1      62.129  63.333  53.387  0.00  0.00    +0.000 A 
ATOM     20  C   UNL     1      61.634  63.851  52.977  0.00  0.00    +0.000 A 
ATOM     21  C   UNL     1      61.568  64.636  53.219  0.00  0.00    +0.000 A 
ATOM     22  C   UNL     1      62.195  62.547  53.145  0.00  0.00    +0.000 C 
ATOM     23  C   UNL     1      62.690  62.030  53.555  0.00  0.00    +0.000 C 
ATOM     24  O   UNL     1      63.120  62.298  54.207  0.00  0.00    +0.000 OA
ATOM     25  N   UNL     1      62.756  61.243  53.313  0.00  0.00    +0.000 NA
ATOM     26  C   UNL     1      63.251  60.727  53.723  0.00  0.00    +0.000 C 
ATOM     27  C   UNL     1      63.317  59.941  53.482  0.00  0.00    +0.000 A 
ATOM     28  C   UNL     1      63.813  59.423  53.891  0.00  0.00    +0.000 A 
ATOM     29  C   UNL     1      63.878  58.637  53.649  0.00  0.00    +0.000 A 
ATOM     30  C   UNL     1      63.449  58.368  52.998  0.00  0.00    +0.000 A 
ATOM     31  C   UNL     1      62.954  58.885  52.588  0.00  0.00    +0.000 A 
ATOM     32  C   UNL     1      62.888  59.672  52.830  0.00  0.00    +0.000 A 
ENDROOT
TORSDOF 0
ENDMDL
MODEL 3
REMARK VINA RESULT:   -11.195      1.265      8.254
REMARK INTER + INTRA:         -11.195
REMARK INTER:                 -11.195
REMARK INTRA:                   0.000
REMARK UNBOUND:                 0.000
ROOT
REMARK  Name = tirbanibulin
REMARK                            x       y       z     vdW  Elec       q    Type
REMARK                         _______ _______ _______ _____ _____    ______ ____
ATOM      1  C   UNL     1      62.556  68.878  54.125  0.00  0.00    +0.000 C 
ATOM      2  C   UNL     1      62.781  69.605  53.806  0.00  0.00    +0.000 C 
ATOM      3  O   UNL     1      62.630  70.302  54.220  0.00  0.00    +0.000 OA
ATOM      4  C   UNL     1      62.253  70.272  54.954  0.00  0.00    +0.000 C 
ATOM      5  C   UNL     1      62.028  69.545  55.273  0.00  0.00    +0.000 C 
ATOM      6  N   UNL     1      62.180  68.848  54.858  0.00  0.00    +0.000 NA
ATOM      7  C   UNL     1      61.955  68.121  55.176  0.00  0.00    +0.000 C 
ATOM      8  C   UNL     1      62.107  67.424  54.762  0.00  0.00    +0.000 C 
ATOM      9  O   UNL     1      61.882  66.698  55.080  0.00  0.00    +0.000 OA
ATOM     10  C   UNL     1      62.034  66.001  54.665  0.00  0.00    +0.000 A 
ATOM     11  C   UNL     1      61.809  65.274  54.984  0.00  0.00    +0.000 A 
ATOM     12  C   UNL     1      61.961  64.578  54.570  0.00  0.00    +0.000 A 
ATOM     13  C   UNL     1      62.337  64.607  53.836  0.00  0.00    +0.000 A 
ATOM     14  C   UNL     1      62.562  65.334  53.517  0.00  0.00    +0.000 A 
ATOM     15  C   UNL     1      62.410  66.032  53.932  0.00  0.00    +0.000 A 
ATOM     16  C   UNL     1      62.489  63.911  53.421  0.00  0.00    +0.000 A 
ATOM     17  C   UNL     1      62.264  63.183  53.740  0.00  0.00    +0.000 A 
ATOM     18  N   UNL     1      62.416  62.486  53.325  0.00  0.00    +0.000 NA
ATOM     19  C   UNL     1      62.793  62.516  52.592  0.00  0.00    +0.000 A 
ATOM     20  C   UNL     1      63.018  63.244  52.273  0.00  0.00    +0.000 A 
ATOM     21  C   UNL     1      62.866  63.940  52.688  0.00  0.00    +0.000 A 
ATOM     22  C   UNL     1      62.945  61.820  52.177  0.00  0.00    +0.000 C 
ATOM     23  C   UNL     1      62.720  61.093  52.496  0.00  0.00    +0.000 C 
ATOM     24  O   UNL     1      62.343  61.062  53.230  0.00  0.00    +0.000 OA
ATOM     25  N   UNL     1      62.871  60.396  52.081  0.00  0.00    +0.000 NA
ATOM     26  C   UNL     1      62.647  59.669  52.400  0.00  0.00    +0.000 C 
ATOM     27  C   UNL     1      62.798  58.972  51.985  0.00  0.00    +0.000 A 
ATOM     28  C   UNL     1      62.573  58.245  52.304  0.00  0.00    +0.000 A 
ATOM     29  C   UNL     1      62.725  57.549  51.889  0.00  0.00    +0.000 A 
ATOM     30  C   UNL     1      63.102  57.578  51.155  0.00  0.00    +0.000 A 
ATOM     31  C   UNL     1      63.327  58.305  50.837  0.00  0.00    +0.000 A 
ATOM     32  C   UNL     1      63.175  59.003  51.251  0.00  0.00    +0.000 A 
ENDROOT
TORSDOF 0
ENDMDL
MODEL 4
REMARK VINA RESULT:   -11.120      1.628      8.269
REMARK INTER + INTRA:         -11.120
REMARK INTER:                 -11.120
REMARK INTRA:                   0.000
REMARK UNBOUND:                 0.000
ROOT
REMARK  Name = tirbanibulin
REMARK                            x       y       z     vdW  Elec       q    Type
REMARK                         _______ _______ _______ _____ _____    ______ ____
ATOM      1  C   UNL     1      60.362  69.751  54.438  0.00  0.00    +0.000 C 
ATOM      2  C   UNL     1      60.154  70.293  55.024  0.00  0.00    +0.000 C 
ATOM      3  O   UNL     1      59.931  71.060  54.817  0.00  0.00    +0.000 OA
ATOM      4  C   UNL     1      59.916  71.285  54.022  0.00  0.00    +0.000 C 
ATOM      5  C   UNL     1      60.124  70.742  53.436  0.00  0.00    +0.000 C 
ATOM      6  N   UNL     1      60.347  69.976  53.645  0.00  0.00    +0.000 NA
ATOM      7  C   UNL     1      60.555  69.433  53.059  0.00  0.00    +0.000 C 
ATOM      8  C   UNL     1      60.778  68.667  53.266  0.00  0.00    +0.000 C 
ATOM      9  O   UNL     1      60.985  68.125  52.681  0.00  0.00    +0.000 OA
ATOM     10  C   UNL     1      61.208  67.358  52.889  0.00  0.00    +0.000 A 
ATOM     11  C   UNL     1      61.417  66.816  52.303  0.00  0.00    +0.000 A 
ATOM     12  C   UNL     1      61.639  66.050  52.510  0.00  0.00    +0.000 A 
ATOM     13  C   UNL     1      61.654  65.824  53.304  0.00  0.00    +0.000 A 
ATOM     14  C   UNL     1      61.446  66.367  53.890  0.00  0.00    +0.000 A 
ATOM     15  C   UNL     1      61.223  67.134  53.682  0.00  0.00    +0.000 A 
ATOM     16  C   UNL     1      61.877  65.058  53.512  0.00  0.00    +0.000 A 
ATOM     17  C   UNL     1      62.085  64.516  52.925  0.00  0.00    +0.000 A 
ATOM     18  N   UNL     1      62.308  63.749  53.134  0.00  0.00    +0.000 NA
ATOM     19  C   UNL     1      62.323  63.524  53.927  0.00  0.00    +0.000 A 
ATOM     20  C   UNL     1      62.115  64.067  54.514  0.00  0.00    +0.000 A 
ATOM     21  C   UNL     1      61.892  64.833  54.306  0.00  0.00    +0.000 A 
ATOM     22  C   UNL     1      62.546  62.758  54.135  0.00  0.00    +0.000 C 
ATOM     23  C   UNL     1      62.754  62.215  53.550  0.00  0.00    +0.000 C 
ATOM     24  O   UNL     1      62.739  62.440  52.755  0.00  0.00    +0.000 OA
ATOM     25  N   UNL     1      62.977  61.449  53.757  0.00  0.00    +0.000 NA
ATOM     26  C   UNL     1      63.184  60.907  53.171  0.00  0.00    +0.000 C 
ATOM     27  C   UNL     1      63.407  60.141  53.378  0.00  0.00    +0.000 A 
ATOM     28  C   UNL     1      63.615  59.598  52.793  0.00  0.00    +0.000 A 
ATOM     29  C   UNL     1      63.838  58.832  53.001  0.00  0.00    +0.000 A 
ATOM     30  C   UNL     1      63.853  58.606  53.795  0.00  0.00    +0.000 A 
ATOM     31  C   UNL     1      63.645  59.149  54.381  0.00  0.00    +0.000 A 
ATOM     32  C   UNL     1      63.422  59.916  54.173  0.00  0.00    +0.000 A 
ENDROOT
TORSDOF 0
ENDMDL
MODEL 5
REMARK VINA RESULT:   -10.409      1.447      1.987
REMARK INTER + INTRA:         -10.409
REMARK INTER:                 -10.409
REMARK INTRA:                   0.000
REMARK UNBOUND:                 0.000
ROOT
REMARK  Name = tirbanibulin
REMARK                            x       y       z     vdW  Elec       q    Type
REMARK                         _______ _______ _______ _____ _____    ______ ____
ATOM      1  C   UNL     1      63.460  60.478  53.721  0.00  0.00    +0.000 C 
ATOM      2  C   UNL     1      63.663  59.874  54.245  0.00  0.00    +0.000 C 
ATOM      3  O   UNL     1      63.907  59.141  53.957  0.00  0.00    +0.000 OA
ATOM      4  C   UNL     1      63.948  59.011  53.143  0.00  0.00    +0.000 C 
ATOM      5  C   UNL     1      63.745  59.615  52.618  0.00  0.00    +0.000 C 
ATOM      6  N   UNL     1      63.501  60.348  52.908  0.00  0.00    +0.000 NA
ATOM      7  C   UNL     1      63.298  60.952  52.383  0.00  0.00    +0.000 C 
ATOM      8  C   UNL     1      63.054  61.685  52.672  0.00  0.00    +0.000 C 
ATOM      9  O   UNL     1      62.852  62.288  52.148  0.00  0.00    +0.000 OA
ATOM     10  C   UNL     1      62.608  63.021  52.437  0.00  0.00    +0.000 A 
ATOM     11  C   UNL     1      62.405  63.625  51.912  0.00  0.00    +0.000 A 
ATOM     12  C   UNL     1      62.161  64.358  52.201  0.00  0.00    +0.000 A 
ATOM     13  C   UNL     1      62.120  64.488  53.015  0.00  0.00    +0.000 A 
ATOM     14  C   UNL     1      62.323  63.884  53.540  0.00  0.00    +0.000 A 
ATOM     15  C   UNL     1      62.567  63.151  53.251  0.00  0.00    +0.000 A 
ATOM     16  C   UNL     1      61.876  65.220  53.304  0.00  0.00    +0.000 A 
ATOM     17  C   UNL     1      61.673  65.825  52.779  0.00  0.00    +0.000 A 
ATOM     18  N   UNL     1      61.429  66.558  53.069  0.00  0.00    +0.000 NA
ATOM     19  C   UNL     1      61.388  66.688  53.882  0.00  0.00    +0.000 A 
ATOM     20  C   UNL     1      61.591  66.083  54.407  0.00  0.00    +0.000 A 
ATOM     21  C   UNL     1      61.835  65.351  54.118  0.00  0.00    +0.000 A 
ATOM     22  C   UNL     1      61.144  67.421  54.172  0.00  0.00    +0.000 C 
ATOM     23  C   UNL     1      60.941  68.024  53.647  0.00  0.00    +0.000 C 
ATOM     24  O   UNL     1      60.982  67.895  52.833  0.00  0.00    +0.000 OA
ATOM     25  N   UNL     1      60.697  68.758  53.935  0.00  0.00    +0.000 NA
ATOM     26  C   UNL     1      60.495  69.360  53.411  0.00  0.00    +0.000 C 
ATOM     27  C   UNL     1      60.251  70.094  53.700  0.00  0.00    +0.000 A 
ATOM     28  C   UNL     1      60.048  70.697  53.175  0.00  0.00    +0.000 A 
ATOM     29  C   UNL     1      59.804  71.430  53.465  0.00  0.00    +0.000 A 
ATOM     30  C   UNL     1      59.763  71.561  54.279  0.00  0.00    +0.000 A 
ATOM     31  C   UNL     1      59.966  70.957  54.804  0.00  0.00    +0.000 A 
ATOM     32  C   UNL     1      60.210  70.223  54.514  0.00  0.00    +0.000 A 
ENDROOT
TORSDOF 0
ENDMDL
MODEL 6
REMARK VINA RESULT:   -10.308      2.175      3.731
REMARK INTER + INTRA:         -10.308
REMARK INTER:                 -10.308
REMARK INTRA:                   0.000
REMARK UNBOUND:                 0.000
ROOT
REMARK  Name = tirbanibulin
REMARK                            x       y       z     vdW  Elec       q    Type
REMARK                         _______ _______ _______ _____ _____    ______ ____
ATOM      1  C   UNL     1      63.938  62.776  53.755  0.00  0.00    +0.000 C 
ATOM      2  C   UNL     1      64.414  62.306  54.240  0.00  0.00    +0.000 C 
ATOM      3  O   UNL     1      64.677  61.571  53.973  0.00  0.00    +0.000 OA
ATOM      4  C   UNL     1      64.464  61.305  53.221  0.00  0.00    +0.000 C 
ATOM      5  C   UNL     1      63.988  61.774  52.737  0.00  0.00    +0.000 C 
ATOM      6  N   UNL     1      63.726  62.510  53.004  0.00  0.00    +0.000 NA
ATOM      7  C   UNL     1      63.251  62.979  52.520  0.00  0.00    +0.000 C 
ATOM      8  C   UNL     1      62.988  63.714  52.786  0.00  0.00    +0.000 C 
ATOM      9  O   UNL     1      62.513  64.182  52.303  0.00  0.00    +0.000 OA
ATOM     10  C   UNL     1      62.250  64.918  52.570  0.00  0.00    +0.000 A 
ATOM     11  C   UNL     1      61.775  65.387  52.085  0.00  0.00    +0.000 A 
ATOM     12  C   UNL     1      61.513  66.122  52.352  0.00  0.00    +0.000 A 
ATOM     13  C   UNL     1      61.725  66.388  53.104  0.00  0.00    +0.000 A 
ATOM     14  C   UNL     1      62.200  65.919  53.588  0.00  0.00    +0.000 A 
ATOM     15  C   UNL     1      62.463  65.184  53.321  0.00  0.00    +0.000 A 
ATOM     16  C   UNL     1      61.463  67.123  53.371  0.00  0.00    +0.000 A 
ATOM     17  C   UNL     1      60.987  67.593  52.886  0.00  0.00    +0.000 A 
ATOM     18  N   UNL     1      60.725  68.328  53.154  0.00  0.00    +0.000 NA
ATOM     19  C   UNL     1      60.937  68.594  53.904  0.00  0.00    +0.000 A 
ATOM     20  C   UNL     1      61.413  68.124  54.389  0.00  0.00    +0.000 A 
ATOM     21  C   UNL     1      61.675  67.390  54.122  0.00  0.00    +0.000 A 
ATOM     22  C   UNL     1      60.675  69.329  54.172  0.00  0.00    +0.000 C 
ATOM     23  C   UNL     1      60.199  69.798  53.688  0.00  0.00    +0.000 C 
ATOM     24  O   UNL     1      59.986  69.532  52.936  0.00  0.00    +0.000 OA
ATOM     25  N   UNL     1      59.937  70.533  53.954  0.00  0.00    +0.000 NA
ATOM     26  C   UNL     1      59.462  71.002  53.470  0.00  0.00    +0.000 C 
ATOM     27  C   UNL     1      59.199  71.737  53.737  0.00  0.00    +0.000 A 
ATOM     28  C   UNL     1      58.724  72.206  53.252  0.00  0.00    +0.000 A 
ATOM     29  C   UNL     1      58.461  72.941  53.520  0.00  0.00    +0.000 A 
ATOM     30  C   UNL     1      58.674  73.208  54.271  0.00  0.00    +0.000 A 
ATOM     31  C   UNL     1      59.149  72.739  54.756  0.00  0.00    +0.000 A 
ATOM     32  C   UNL     1      59.412  72.003  54.489  0.00  0.00    +0.000 A 
ENDROOT
TORSDOF 0
ENDMDL
MODEL 7
REMARK VINA RESULT:    -9.767      2.118      8.125
REMARK INTER + INTRA:          -9.767
REMARK INTER:                  -9.767
REMARK INTRA:                   0.000
REMARK UNBOUND:                 0.000
ROOT
REMARK  Name = tirbanibulin
REMARK                            x       y       z     vdW  Elec       q    Type
REMARK                         _______ _______ _______ _____ _____    ______ ____
ATOM      1  C   UNL     1      60.150  69.312  51.207  0.00  0.00    +0.000 C 
ATOM      2  C   UNL     1      59.844  69.726  50.562  0.00  0.00    +0.000 C 
ATOM      3  O   UNL     1      59.666  70.528  50.633  0.00  0.00    +0.000 OA
ATOM      4  C   UNL     1      59.794  70.917  51.350  0.00  0.00    +0.000 C 
ATOM      5  C   UNL     1      60.100  70.503  51.995  0.00  0.00    +0.000 C 
ATOM      6  N   UNL     1      60.278  69.700  51.923  0.00  0.00    +0.000 NA
ATOM      7  C   UNL     1      60.583  69.286  52.568  0.00  0.00    +0.000 C 
ATOM      8  C   UNL     1      60.762  68.484  52.497  0.00  0.00    +0.000 C 
ATOM      9  O   UNL     1      61.067  68.071  53.141  0.00  0.00    +0.000 OA
ATOM     10  C   UNL     1      61.245  67.268  53.069  0.00  0.00    +0.000 A 
ATOM     11  C   UNL     1      61.551  66.854  53.714  0.00  0.00    +0.000 A 
ATOM     12  C   UNL     1      61.729  66.052  53.642  0.00  0.00    +0.000 A 
ATOM     13  C   UNL     1      61.601  65.663  52.926  0.00  0.00    +0.000 A 
ATOM     14  C   UNL     1      61.295  66.077  52.281  0.00  0.00    +0.000 A 
ATOM     15  C   UNL     1      61.117  66.880  52.353  0.00  0.00    +0.000 A 
ATOM     16  C   UNL     1      61.779  64.861  52.854  0.00  0.00    +0.000 A 
ATOM     17  C   UNL     1      62.085  64.447  53.500  0.00  0.00    +0.000 A 
ATOM     18  N   UNL     1      62.263  63.644  53.427  0.00  0.00    +0.000 NA
ATOM     19  C   UNL     1      62.136  63.256  52.712  0.00  0.00    +0.000 A 
ATOM     20  C   UNL     1      61.829  63.670  52.066  0.00  0.00    +0.000 A 
ATOM     21  C   UNL     1      61.651  64.472  52.138  0.00  0.00    +0.000 A 
ATOM     22  C   UNL     1      62.313  62.453  52.639  0.00  0.00    +0.000 C 
ATOM     23  C   UNL     1      62.619  62.039  53.284  0.00  0.00    +0.000 C 
ATOM     24  O   UNL     1      62.747  62.428  54.001  0.00  0.00    +0.000 OA
ATOM     25  N   UNL     1      62.797  61.237  53.213  0.00  0.00    +0.000 NA
ATOM     26  C   UNL     1      63.103  60.824  53.857  0.00  0.00    +0.000 C 
ATOM     27  C   UNL     1      63.281  60.022  53.786  0.00  0.00    +0.000 A 
ATOM     28  C   UNL     1      63.587  59.608  54.431  0.00  0.00    +0.000 A 
ATOM     29  C   UNL     1      63.765  58.805  54.359  0.00  0.00    +0.000 A 
ATOM     30  C   UNL     1      63.637  58.416  53.642  0.00  0.00    +0.000 A 
ATOM     31  C   UNL     1      63.331  58.830  52.997  0.00  0.00    +0.000 A 
ATOM     32  C   UNL     1      63.153  59.633  53.069  0.00  0.00    +0.000 A 
ENDROOT
TORSDOF 0
ENDMDL
MODEL 8
REMARK VINA RESULT:    -9.203      3.196      3.431
REMARK INTER + INTRA:          -9.203
REMARK INTER:                  -9.203
REMARK INTRA:                   0.000
REMARK UNBOUND:                 0.000
ROOT
REMARK  Name = tirbanibulin
REMARK                            x       y       z     vdW  Elec       q    Type
REMARK                         _______ _______ _______ _____ _____    ______ ____
ATOM      1  C   UNL     1      62.546  59.659  52.538  0.00  0.00    +0.000 C 
ATOM      2  C   UNL     1      62.367  59.152  53.164  0.00  0.00    +0.000 C 
ATOM      3  O   UNL     1      62.574  58.355  53.122  0.00  0.00    +0.000 OA
ATOM      4  C   UNL     1      62.962  58.064  52.454  0.00  0.00    +0.000 C 
ATOM      5  C   UNL     1      63.141  58.571  51.828  0.00  0.00    +0.000 C 
ATOM      6  N   UNL     1      62.933  59.368  51.870  0.00  0.00    +0.000 NA
ATOM      7  C   UNL     1      63.113  59.875  51.245  0.00  0.00    +0.000 C 
ATOM      8  C   UNL     1      62.906  60.672  51.286  0.00  0.00    +0.000 C 
ATOM      9  O   UNL     1      63.085  61.178  50.661  0.00  0.00    +0.000 OA
ATOM     10  C   UNL     1      62.877  61.976  50.703  0.00  0.00    +0.000 A 
ATOM     11  C   UNL     1      63.057  62.482  50.077  0.00  0.00    +0.000 A 
ATOM     12  C   UNL     1      62.850  63.279  50.119  0.00  0.00    +0.000 A 
ATOM     13  C   UNL     1      62.462  63.571  50.787  0.00  0.00    +0.000 A 
ATOM     14  C   UNL     1      62.282  63.064  51.413  0.00  0.00    +0.000 A 
ATOM     15  C   UNL     1      62.490  62.266  51.371  0.00  0.00    +0.000 A 
ATOM     16  C   UNL     1      62.255  64.367  50.829  0.00  0.00    +0.000 A 
ATOM     17  C   UNL     1      62.434  64.874  50.202  0.00  0.00    +0.000 A 
ATOM     18  N   UNL     1      62.227  65.672  50.245  0.00  0.00    +0.000 NA
ATOM     19  C   UNL     1      61.839  65.963  50.912  0.00  0.00    +0.000 A 
ATOM     20  C   UNL     1      61.660  65.455  51.539  0.00  0.00    +0.000 A 
ATOM     21  C   UNL     1      61.867  64.659  51.497  0.00  0.00    +0.000 A 
ATOM     22  C   UNL     1      61.632  66.760  50.955  0.00  0.00    +0.000 C 
ATOM     23  C   UNL     1      61.811  67.267  50.329  0.00  0.00    +0.000 C 
ATOM     24  O   UNL     1      62.199  66.976  49.661  0.00  0.00    +0.000 OA
ATOM     25  N   UNL     1      61.604  68.064  50.370  0.00  0.00    +0.000 NA
ATOM     26  C   UNL     1      61.783  68.570  49.745  0.00  0.00    +0.000 C 
ATOM     27  C   UNL     1      61.576  69.367  49.787  0.00  0.00    +0.000 A 
ATOM     28  C   UNL     1      61.756  69.874  49.161  0.00  0.00    +0.000 A 
ATOM     29  C   UNL     1      61.548  70.671  49.204  0.00  0.00    +0.000 A 
ATOM     30  C   UNL     1      61.160  70.963  49.871  0.00  0.00    +0.000 A 
ATOM     31  C   UNL     1      60.981  70.456  50.497  0.00  0.00    +0.000 A 
ATOM     32  C   UNL     1      61.188  69.658  50.455  0.00  0.00    +0.000 A 
ENDROOT
TORSDOF 0
ENDMDL
