MODEL 1
REMARK VINA RESULT:   -15.150      0.000      0.000
REMARK INTER + INTRA:         -15.150
REMARK INTER:                 -15.150
REMARK INTRA:                   0.000
REMARK UNBOUND:                 0.000
ROOT
REMARK  Name = tiropramide
REMARK                            x       y       z     vdW  Elec       q    Type
REMARK                         _______ _______ _______ _____ _____    ______ ____
ATOM      1  C   UNL     1      59.780  64.055  70.587  0.00  0.00    +0.000 C 
ATOM      2  C   UNL     1      60.316  64.510  71.020  0.00  0.00    +0.000 C 
ATOM      3  C   UNL     1      60.097  64.819  71.753  0.00  0.00    +0.000 C 
ATOM      4  N   UNL     1      60.633  65.273  72.185  0.00  0.00    +0.000 N 
ATOM      5  C   UNL     1      60.414  65.582  72.918  0.00  0.00    +0.000 C 
ATOM      6  C   UNL     1      59.660  65.436  73.219  0.00  0.00    +0.000 C 
ATOM      7  C   UNL     1      59.124  64.981  72.786  0.00  0.00    +0.000 C 
ATOM      8  C   UNL     1      61.387  65.419  71.884  0.00  0.00    +0.000 C 
ATOM      9  O   UNL     1      61.923  65.874  72.317  0.00  0.00    +0.000 OA
ATOM     10  C   UNL     1      61.605  65.110  71.151  0.00  0.00    +0.000 C 
ATOM     11  C   UNL     1      61.070  64.656  70.719  0.00  0.00    +0.000 C 
ATOM     12  C   UNL     1      61.288  64.347  69.986  0.00  0.00    +0.000 A 
ATOM     13  C   UNL     1      62.043  64.493  69.685  0.00  0.00    +0.000 A 
ATOM     14  C   UNL     1      62.262  64.184  68.952  0.00  0.00    +0.000 A 
ATOM     15  C   UNL     1      61.726  63.729  68.519  0.00  0.00    +0.000 A 
ATOM     16  O   UNL     1      61.945  63.420  67.786  0.00  0.00    +0.000 OA
ATOM     17  C   UNL     1      61.409  62.966  67.354  0.00  0.00    +0.000 C 
ATOM     18  C   UNL     1      61.628  62.657  66.620  0.00  0.00    +0.000 C 
ATOM     19  N   UNL     1      61.092  62.203  66.188  0.00  0.00    +0.000 NA
ATOM     20  C   UNL     1      61.311  61.894  65.455  0.00  0.00    +0.000 C 
ATOM     21  C   UNL     1      60.775  61.439  65.023  0.00  0.00    +0.000 C 
ATOM     22  C   UNL     1      60.338  62.057  66.489  0.00  0.00    +0.000 C 
ATOM     23  C   UNL     1      60.118  62.365  67.222  0.00  0.00    +0.000 C 
ATOM     24  C   UNL     1      60.971  63.583  68.820  0.00  0.00    +0.000 A 
ATOM     25  C   UNL     1      60.753  63.892  69.554  0.00  0.00    +0.000 A 
ATOM     26  N   UNL     1      62.360  65.256  70.850  0.00  0.00    +0.000 NA
ATOM     27  C   UNL     1      62.896  65.711  71.283  0.00  0.00    +0.000 C 
ATOM     28  O   UNL     1      62.677  66.020  72.017  0.00  0.00    +0.000 OA
ATOM     29  C   UNL     1      63.650  65.857  70.982  0.00  0.00    +0.000 A 
ATOM     30  C   UNL     1      64.186  66.312  71.415  0.00  0.00    +0.000 A 
ATOM     31  C   UNL     1      64.940  66.457  71.114  0.00  0.00    +0.000 A 
ATOM     32  C   UNL     1      65.159  66.149  70.381  0.00  0.00    +0.000 A 
ATOM     33  C   UNL     1      64.623  65.694  69.948  0.00  0.00    +0.000 A 
ATOM     34  C   UNL     1      63.869  65.548  70.249  0.00  0.00    +0.000 A 
ENDROOT
TORSDOF 0
ENDMDL
MODEL 2
REMARK VINA RESULT:   -15.105      2.152      2.614
REMARK INTER + INTRA:         -15.105
REMARK INTER:                 -15.105
REMARK INTRA:                   0.000
REMARK UNBOUND:                 0.000
ROOT
REMARK  Name = tiropramide
REMARK                            x       y       z     vdW  Elec       q    Type
REMARK                         _______ _______ _______ _____ _____    ______ ____
ATOM      1  C   UNL     1      60.038  65.350  68.895  0.00  0.00    +0.000 C 
ATOM      2  C   UNL     1      60.145  65.230  69.705  0.00  0.00    +0.000 C 
ATOM      3  C   UNL     1      59.923  65.816  70.242  0.00  0.00    +0.000 C 
ATOM      4  N   UNL     1      60.030  65.696  71.050  0.00  0.00    +0.000 N 
ATOM      5  C   UNL     1      59.807  66.282  71.587  0.00  0.00    +0.000 C 
ATOM      6  C   UNL     1      59.477  66.987  71.315  0.00  0.00    +0.000 C 
ATOM      7  C   UNL     1      59.370  67.107  70.505  0.00  0.00    +0.000 C 
ATOM      8  C   UNL     1      60.359  64.991  71.323  0.00  0.00    +0.000 C 
ATOM      9  O   UNL     1      60.466  64.871  72.133  0.00  0.00    +0.000 OA
ATOM     10  C   UNL     1      60.582  64.405  70.786  0.00  0.00    +0.000 C 
ATOM     11  C   UNL     1      60.475  64.525  69.977  0.00  0.00    +0.000 C 
ATOM     12  C   UNL     1      60.698  63.939  69.440  0.00  0.00    +0.000 A 
ATOM     13  C   UNL     1      61.028  63.233  69.713  0.00  0.00    +0.000 A 
ATOM     14  C   UNL     1      61.250  62.647  69.177  0.00  0.00    +0.000 A 
ATOM     15  C   UNL     1      61.143  62.767  68.367  0.00  0.00    +0.000 A 
ATOM     16  O   UNL     1      61.366  62.181  67.830  0.00  0.00    +0.000 OA
ATOM     17  C   UNL     1      61.259  62.301  67.022  0.00  0.00    +0.000 C 
ATOM     18  C   UNL     1      61.481  61.716  66.485  0.00  0.00    +0.000 C 
ATOM     19  N   UNL     1      61.374  61.835  65.676  0.00  0.00    +0.000 NA
ATOM     20  C   UNL     1      61.597  61.250  65.139  0.00  0.00    +0.000 C 
ATOM     21  C   UNL     1      61.490  61.370  64.330  0.00  0.00    +0.000 C 
ATOM     22  C   UNL     1      61.045  62.541  65.403  0.00  0.00    +0.000 C 
ATOM     23  C   UNL     1      60.822  63.127  65.939  0.00  0.00    +0.000 C 
ATOM     24  C   UNL     1      60.813  63.473  68.095  0.00  0.00    +0.000 A 
ATOM     25  C   UNL     1      60.591  64.059  68.632  0.00  0.00    +0.000 A 
ATOM     26  N   UNL     1      60.912  63.699  71.059  0.00  0.00    +0.000 NA
ATOM     27  C   UNL     1      61.019  63.579  71.868  0.00  0.00    +0.000 C 
ATOM     28  O   UNL     1      60.796  64.166  72.405  0.00  0.00    +0.000 OA
ATOM     29  C   UNL     1      61.349  62.874  72.141  0.00  0.00    +0.000 A 
ATOM     30  C   UNL     1      61.456  62.754  72.951  0.00  0.00    +0.000 A 
ATOM     31  C   UNL     1      61.785  62.049  73.222  0.00  0.00    +0.000 A 
ATOM     32  C   UNL     1      62.008  61.463  72.686  0.00  0.00    +0.000 A 
ATOM     33  C   UNL     1      61.901  61.583  71.877  0.00  0.00    +0.000 A 
ATOM     34  C   UNL     1      61.571  62.288  71.604  0.00  0.00    +0.000 A 
ENDROOT
TORSDOF 0
ENDMDL
MODEL 3
REMARK VINA RESULT:   -14.556      2.670      5.033
REMARK INTER + INTRA:         -14.556
REMARK INTER:                 -14.556
REMARK INTRA:                   0.000
REMARK UNBOUND:                 0.000
ROOT
REMARK  Name = tiropramide
REMARK                            x       y       z     vdW  Elec       q    Type
REMARK                         _______ _______ _______ _____ _____    ______ ____
ATOM      1  C   UNL     1      60.904  67.113  72.609  0.00  0.00    +0.000 C 
ATOM      2  C   UNL     1      60.418  66.453  72.508  0.00  0.00    +0.000 C 
ATOM      3  C   UNL     1      59.620  66.493  72.713  0.00  0.00    +0.000 C 
ATOM      4  N   UNL     1      59.135  65.833  72.612  0.00  0.00    +0.000 N 
ATOM      5  C   UNL     1      58.337  65.873  72.817  0.00  0.00    +0.000 C 
ATOM      6  C   UNL     1      58.024  66.573  73.122  0.00  0.00    +0.000 C 
ATOM      7  C   UNL     1      58.509  67.233  73.222  0.00  0.00    +0.000 C 
ATOM      8  C   UNL     1      59.448  65.134  72.307  0.00  0.00    +0.000 C 
ATOM      9  O   UNL     1      58.963  64.474  72.207  0.00  0.00    +0.000 OA
ATOM     10  C   UNL     1      60.247  65.094  72.103  0.00  0.00    +0.000 C 
ATOM     11  C   UNL     1      60.731  65.753  72.203  0.00  0.00    +0.000 C 
ATOM     12  C   UNL     1      61.530  65.714  71.999  0.00  0.00    +0.000 A 
ATOM     13  C   UNL     1      61.844  65.014  71.693  0.00  0.00    +0.000 A 
ATOM     14  C   UNL     1      62.641  64.973  71.489  0.00  0.00    +0.000 A 
ATOM     15  C   UNL     1      63.127  65.633  71.589  0.00  0.00    +0.000 A 
ATOM     16  O   UNL     1      63.925  65.594  71.385  0.00  0.00    +0.000 OA
ATOM     17  C   UNL     1      64.410  66.253  71.485  0.00  0.00    +0.000 C 
ATOM     18  C   UNL     1      65.208  66.213  71.281  0.00  0.00    +0.000 C 
ATOM     19  N   UNL     1      65.693  66.873  71.381  0.00  0.00    +0.000 NA
ATOM     20  C   UNL     1      66.491  66.833  71.177  0.00  0.00    +0.000 C 
ATOM     21  C   UNL     1      66.976  67.493  71.277  0.00  0.00    +0.000 C 
ATOM     22  C   UNL     1      65.380  67.572  71.686  0.00  0.00    +0.000 C 
ATOM     23  C   UNL     1      64.582  67.613  71.891  0.00  0.00    +0.000 C 
ATOM     24  C   UNL     1      62.813  66.334  71.895  0.00  0.00    +0.000 A 
ATOM     25  C   UNL     1      62.015  66.373  72.099  0.00  0.00    +0.000 A 
ATOM     26  N   UNL     1      60.561  64.394  71.798  0.00  0.00    +0.000 NA
ATOM     27  C   UNL     1      60.075  63.734  71.697  0.00  0.00    +0.000 C 
ATOM     28  O   UNL     1      59.276  63.774  71.902  0.00  0.00    +0.000 OA
ATOM     29  C   UNL     1      60.388  63.034  71.392  0.00  0.00    +0.000 A 
ATOM     30  C   UNL     1      59.903  62.374  71.292  0.00  0.00    +0.000 A 
ATOM     31  C   UNL     1      60.217  61.675  70.987  0.00  0.00    +0.000 A 
ATOM     32  C   UNL     1      61.014  61.635  70.782  0.00  0.00    +0.000 A 
ATOM     33  C   UNL     1      61.500  62.295  70.883  0.00  0.00    +0.000 A 
ATOM     34  C   UNL     1      61.187  62.995  71.188  0.00  0.00    +0.000 A 
ENDROOT
TORSDOF 0
ENDMDL
MODEL 4
REMARK VINA RESULT:   -14.523      2.241      2.730
REMARK INTER + INTRA:         -14.523
REMARK INTER:                 -14.523
REMARK INTRA:                   0.000
REMARK UNBOUND:                 0.000
ROOT
REMARK  Name = tiropramide
REMARK                            x       y       z     vdW  Elec       q    Type
REMARK                         _______ _______ _______ _____ _____    ______ ____
ATOM      1  C   UNL     1      61.615  61.971  70.236  0.00  0.00    +0.000 C 
ATOM      2  C   UNL     1      61.360  62.635  70.656  0.00  0.00    +0.000 C 
ATOM      3  C   UNL     1      61.393  62.639  71.480  0.00  0.00    +0.000 C 
ATOM      4  N   UNL     1      61.139  63.302  71.899  0.00  0.00    +0.000 N 
ATOM      5  C   UNL     1      61.171  63.307  72.724  0.00  0.00    +0.000 C 
ATOM      6  C   UNL     1      61.458  62.648  73.129  0.00  0.00    +0.000 C 
ATOM      7  C   UNL     1      61.713  61.984  72.709  0.00  0.00    +0.000 C 
ATOM      8  C   UNL     1      60.852  63.961  71.494  0.00  0.00    +0.000 C 
ATOM      9  O   UNL     1      60.597  64.625  71.914  0.00  0.00    +0.000 OA
ATOM     10  C   UNL     1      60.819  63.957  70.670  0.00  0.00    +0.000 C 
ATOM     11  C   UNL     1      61.073  63.294  70.251  0.00  0.00    +0.000 C 
ATOM     12  C   UNL     1      61.041  63.289  69.426  0.00  0.00    +0.000 A 
ATOM     13  C   UNL     1      60.754  63.949  69.021  0.00  0.00    +0.000 A 
ATOM     14  C   UNL     1      60.721  63.945  68.197  0.00  0.00    +0.000 A 
ATOM     15  C   UNL     1      60.975  63.281  67.777  0.00  0.00    +0.000 A 
ATOM     16  O   UNL     1      60.943  63.276  66.953  0.00  0.00    +0.000 OA
ATOM     17  C   UNL     1      61.197  62.613  66.534  0.00  0.00    +0.000 C 
ATOM     18  C   UNL     1      61.165  62.609  65.709  0.00  0.00    +0.000 C 
ATOM     19  N   UNL     1      61.419  61.946  65.290  0.00  0.00    +0.000 NA
ATOM     20  C   UNL     1      61.386  61.941  64.466  0.00  0.00    +0.000 C 
ATOM     21  C   UNL     1      61.640  61.278  64.047  0.00  0.00    +0.000 C 
ATOM     22  C   UNL     1      61.706  61.287  65.695  0.00  0.00    +0.000 C 
ATOM     23  C   UNL     1      61.739  61.290  66.519  0.00  0.00    +0.000 C 
ATOM     24  C   UNL     1      61.263  62.621  68.183  0.00  0.00    +0.000 A 
ATOM     25  C   UNL     1      61.295  62.626  69.007  0.00  0.00    +0.000 A 
ATOM     26  N   UNL     1      60.532  64.616  70.264  0.00  0.00    +0.000 NA
ATOM     27  C   UNL     1      60.278  65.280  70.684  0.00  0.00    +0.000 C 
ATOM     28  O   UNL     1      60.311  65.284  71.509  0.00  0.00    +0.000 OA
ATOM     29  C   UNL     1      59.991  65.939  70.279  0.00  0.00    +0.000 A 
ATOM     30  C   UNL     1      59.736  66.602  70.699  0.00  0.00    +0.000 A 
ATOM     31  C   UNL     1      59.450  67.261  70.293  0.00  0.00    +0.000 A 
ATOM     32  C   UNL     1      59.417  67.257  69.470  0.00  0.00    +0.000 A 
ATOM     33  C   UNL     1      59.671  66.593  69.050  0.00  0.00    +0.000 A 
ATOM     34  C   UNL     1      59.958  65.934  69.455  0.00  0.00    +0.000 A 
ENDROOT
TORSDOF 0
ENDMDL
MODEL 5
REMARK VINA RESULT:   -13.794      2.455      5.042
REMARK INTER + INTRA:         -13.794
REMARK INTER:                 -13.794
REMARK INTRA:                   0.000
REMARK UNBOUND:                 0.000
ROOT
REMARK  Name = tiropramide
REMARK                            x       y       z     vdW  Elec       q    Type
REMARK                         _______ _______ _______ _____ _____    ______ ____
ATOM      1  C   UNL     1      62.377  63.290  70.591  0.00  0.00    +0.000 C 
ATOM      2  C   UNL     1      61.620  63.350  70.914  0.00  0.00    +0.000 C 
ATOM      3  C   UNL     1      61.114  62.697  70.904  0.00  0.00    +0.000 C 
ATOM      4  N   UNL     1      60.358  62.757  71.227  0.00  0.00    +0.000 N 
ATOM      5  C   UNL     1      59.852  62.105  71.217  0.00  0.00    +0.000 C 
ATOM      6  C   UNL     1      60.104  61.393  70.885  0.00  0.00    +0.000 C 
ATOM      7  C   UNL     1      60.862  61.334  70.562  0.00  0.00    +0.000 C 
ATOM      8  C   UNL     1      60.106  63.469  71.559  0.00  0.00    +0.000 C 
ATOM      9  O   UNL     1      59.348  63.528  71.882  0.00  0.00    +0.000 OA
ATOM     10  C   UNL     1      60.611  64.121  71.569  0.00  0.00    +0.000 C 
ATOM     11  C   UNL     1      61.368  64.061  71.247  0.00  0.00    +0.000 C 
ATOM     12  C   UNL     1      61.873  64.714  71.256  0.00  0.00    +0.000 A 
ATOM     13  C   UNL     1      61.621  65.426  71.589  0.00  0.00    +0.000 A 
ATOM     14  C   UNL     1      62.125  66.078  71.599  0.00  0.00    +0.000 A 
ATOM     15  C   UNL     1      62.883  66.019  71.276  0.00  0.00    +0.000 A 
ATOM     16  O   UNL     1      63.388  66.671  71.286  0.00  0.00    +0.000 OA
ATOM     17  C   UNL     1      64.145  66.612  70.964  0.00  0.00    +0.000 C 
ATOM     18  C   UNL     1      64.650  67.264  70.974  0.00  0.00    +0.000 C 
ATOM     19  N   UNL     1      65.406  67.204  70.651  0.00  0.00    +0.000 NA
ATOM     20  C   UNL     1      65.912  67.857  70.661  0.00  0.00    +0.000 C 
ATOM     21  C   UNL     1      66.668  67.797  70.338  0.00  0.00    +0.000 C 
ATOM     22  C   UNL     1      65.658  66.493  70.319  0.00  0.00    +0.000 C 
ATOM     23  C   UNL     1      65.154  65.840  70.308  0.00  0.00    +0.000 C 
ATOM     24  C   UNL     1      63.135  65.306  70.944  0.00  0.00    +0.000 A 
ATOM     25  C   UNL     1      62.629  64.654  70.934  0.00  0.00    +0.000 A 
ATOM     26  N   UNL     1      60.359  64.833  71.902  0.00  0.00    +0.000 NA
ATOM     27  C   UNL     1      59.602  64.893  72.225  0.00  0.00    +0.000 C 
ATOM     28  O   UNL     1      59.096  64.240  72.214  0.00  0.00    +0.000 OA
ATOM     29  C   UNL     1      59.350  65.604  72.557  0.00  0.00    +0.000 A 
ATOM     30  C   UNL     1      58.592  65.664  72.880  0.00  0.00    +0.000 A 
ATOM     31  C   UNL     1      58.341  66.376  73.212  0.00  0.00    +0.000 A 
ATOM     32  C   UNL     1      58.846  67.028  73.222  0.00  0.00    +0.000 A 
ATOM     33  C   UNL     1      59.603  66.968  72.899  0.00  0.00    +0.000 A 
ATOM     34  C   UNL     1      59.855  66.257  72.567  0.00  0.00    +0.000 A 
ENDROOT
TORSDOF 0
ENDMDL
