MODEL 1
REMARK VINA RESULT:   -13.785      0.000      0.000
REMARK INTER + INTRA:         -13.785
REMARK INTER:                 -13.785
REMARK INTRA:                   0.000
REMARK UNBOUND:                 0.000
ROOT
REMARK  Name = tocopheryl nicotinate
REMARK                            x       y       z     vdW  Elec       q    Type
REMARK                         _______ _______ _______ _____ _____    ______ ____
ATOM      1  C   UNL     1      60.919  70.389  54.844  0.00  0.00    +0.000 C 
ATOM      2  C   UNL     1      61.115  69.859  54.242  0.00  0.00    +0.000 C 
ATOM      3  C   UNL     1      61.268  69.069  54.421  0.00  0.00    +0.000 C 
ATOM      4  C   UNL     1      61.160  70.121  53.461  0.00  0.00    +0.000 C 
ATOM      5  C   UNL     1      61.356  69.591  52.859  0.00  0.00    +0.000 C 
ATOM      6  C   UNL     1      61.401  69.853  52.078  0.00  0.00    +0.000 C 
ATOM      7  C   UNL     1      61.597  69.323  51.476  0.00  0.00    +0.000 C 
ATOM      8  C   UNL     1      61.641  69.585  50.695  0.00  0.00    +0.000 C 
ATOM      9  C   UNL     1      61.749  68.533  51.656  0.00  0.00    +0.000 C 
ATOM     10  C   UNL     1      61.705  68.272  52.437  0.00  0.00    +0.000 C 
ATOM     11  C   UNL     1      61.857  67.481  52.617  0.00  0.00    +0.000 C 
ATOM     12  C   UNL     1      61.813  67.219  53.398  0.00  0.00    +0.000 C 
ATOM     13  C   UNL     1      61.616  67.749  54.000  0.00  0.00    +0.000 C 
ATOM     14  C   UNL     1      61.965  66.429  53.578  0.00  0.00    +0.000 C 
ATOM     15  C   UNL     1      61.920  66.168  54.359  0.00  0.00    +0.000 C 
ATOM     16  C   UNL     1      62.073  65.377  54.539  0.00  0.00    +0.000 C 
ATOM     17  C   UNL     1      62.269  64.847  53.937  0.00  0.00    +0.000 C 
ATOM     18  C   UNL     1      62.174  65.537  53.496  0.00  0.00    +0.000 C 
ATOM     19  C   UNL     1      62.296  64.341  54.588  0.00  0.00    +0.000 C 
ATOM     20  C   UNL     1      62.487  63.545  54.484  0.00  0.00    +0.000 C 
ATOM     21  C   UNL     1      62.650  63.256  53.729  0.00  0.00    +0.000 A 
ATOM     22  C   UNL     1      62.841  62.459  53.625  0.00  0.00    +0.000 A 
ATOM     23  C   UNL     1      62.868  61.953  54.276  0.00  0.00    +0.000 C 
ATOM     24  C   UNL     1      63.004  62.170  52.870  0.00  0.00    +0.000 A 
ATOM     25  O   UNL     1      63.195  61.374  52.766  0.00  0.00    +0.000 OA
ATOM     26  C   UNL     1      63.222  60.868  53.416  0.00  0.00    +0.000 C 
ATOM     27  O   UNL     1      63.058  61.157  54.172  0.00  0.00    +0.000 OA
ATOM     28  C   UNL     1      63.412  60.072  53.312  0.00  0.00    +0.000 A 
ATOM     29  C   UNL     1      63.440  59.566  53.963  0.00  0.00    +0.000 A 
ATOM     30  N   UNL     1      63.630  58.769  53.859  0.00  0.00    +0.000 NA
ATOM     31  C   UNL     1      63.793  58.480  53.104  0.00  0.00    +0.000 A 
ATOM     32  C   UNL     1      63.766  58.986  52.454  0.00  0.00    +0.000 A 
ATOM     33  C   UNL     1      63.576  59.782  52.558  0.00  0.00    +0.000 A 
ATOM     34  C   UNL     1      62.977  62.676  52.219  0.00  0.00    +0.000 A 
ATOM     35  C   UNL     1      63.140  62.387  51.465  0.00  0.00    +0.000 C 
ATOM     36  C   UNL     1      62.787  63.472  52.323  0.00  0.00    +0.000 A 
ATOM     37  C   UNL     1      62.759  63.978  51.673  0.00  0.00    +0.000 C 
ATOM     38  C   UNL     1      62.623  63.762  53.079  0.00  0.00    +0.000 A 
ATOM     39  O   UNL     1      62.432  64.558  53.183  0.00  0.00    +0.000 OA
ENDROOT
TORSDOF 0
ENDMDL
MODEL 2
REMARK VINA RESULT:   -13.656      1.266      2.386
REMARK INTER + INTRA:         -13.656
REMARK INTER:                 -13.656
REMARK INTRA:                   0.000
REMARK UNBOUND:                 0.000
ROOT
REMARK  Name = tocopheryl nicotinate
REMARK                            x       y       z     vdW  Elec       q    Type
REMARK                         _______ _______ _______ _____ _____    ______ ____
ATOM      1  C   UNL     1      60.863  70.171  53.931  0.00  0.00    +0.000 C 
ATOM      2  C   UNL     1      61.245  69.515  54.256  0.00  0.00    +0.000 C 
ATOM      3  C   UNL     1      61.252  68.798  53.848  0.00  0.00    +0.000 C 
ATOM      4  C   UNL     1      61.619  69.577  54.988  0.00  0.00    +0.000 C 
ATOM      5  C   UNL     1      62.001  68.921  55.313  0.00  0.00    +0.000 C 
ATOM      6  C   UNL     1      62.376  68.983  56.045  0.00  0.00    +0.000 C 
ATOM      7  C   UNL     1      62.757  68.327  56.370  0.00  0.00    +0.000 C 
ATOM      8  C   UNL     1      63.132  68.389  57.102  0.00  0.00    +0.000 C 
ATOM      9  C   UNL     1      62.764  67.610  55.962  0.00  0.00    +0.000 C 
ATOM     10  C   UNL     1      62.389  67.549  55.230  0.00  0.00    +0.000 C 
ATOM     11  C   UNL     1      62.395  66.832  54.822  0.00  0.00    +0.000 C 
ATOM     12  C   UNL     1      62.021  66.770  54.090  0.00  0.00    +0.000 C 
ATOM     13  C   UNL     1      61.639  67.426  53.765  0.00  0.00    +0.000 C 
ATOM     14  C   UNL     1      62.028  66.053  53.682  0.00  0.00    +0.000 C 
ATOM     15  C   UNL     1      61.653  65.992  52.949  0.00  0.00    +0.000 C 
ATOM     16  C   UNL     1      61.659  65.275  52.541  0.00  0.00    +0.000 C 
ATOM     17  C   UNL     1      62.041  64.618  52.866  0.00  0.00    +0.000 C 
ATOM     18  C   UNL     1      62.184  65.175  53.458  0.00  0.00    +0.000 C 
ATOM     19  C   UNL     1      61.766  64.289  52.162  0.00  0.00    +0.000 C 
ATOM     20  C   UNL     1      61.921  63.498  51.987  0.00  0.00    +0.000 C 
ATOM     21  C   UNL     1      62.352  63.036  52.517  0.00  0.00    +0.000 A 
ATOM     22  C   UNL     1      62.507  62.245  52.342  0.00  0.00    +0.000 A 
ATOM     23  C   UNL     1      62.232  61.916  51.638  0.00  0.00    +0.000 C 
ATOM     24  C   UNL     1      62.938  61.782  52.873  0.00  0.00    +0.000 A 
ATOM     25  O   UNL     1      63.094  60.991  52.698  0.00  0.00    +0.000 OA
ATOM     26  C   UNL     1      62.818  60.662  51.994  0.00  0.00    +0.000 C 
ATOM     27  O   UNL     1      62.387  61.125  51.463  0.00  0.00    +0.000 OA
ATOM     28  C   UNL     1      62.974  59.872  51.819  0.00  0.00    +0.000 A 
ATOM     29  C   UNL     1      62.699  59.543  51.115  0.00  0.00    +0.000 A 
ATOM     30  N   UNL     1      62.854  58.751  50.940  0.00  0.00    +0.000 NA
ATOM     31  C   UNL     1      63.285  58.289  51.470  0.00  0.00    +0.000 A 
ATOM     32  C   UNL     1      63.560  58.618  52.174  0.00  0.00    +0.000 A 
ATOM     33  C   UNL     1      63.405  59.409  52.349  0.00  0.00    +0.000 A 
ATOM     34  C   UNL     1      63.214  62.111  53.577  0.00  0.00    +0.000 A 
ATOM     35  C   UNL     1      63.644  61.649  54.107  0.00  0.00    +0.000 C 
ATOM     36  C   UNL     1      63.058  62.902  53.752  0.00  0.00    +0.000 A 
ATOM     37  C   UNL     1      63.334  63.231  54.456  0.00  0.00    +0.000 C 
ATOM     38  C   UNL     1      62.627  63.365  53.222  0.00  0.00    +0.000 A 
ATOM     39  O   UNL     1      62.472  64.156  53.396  0.00  0.00    +0.000 OA
ENDROOT
TORSDOF 0
ENDMDL
MODEL 3
REMARK VINA RESULT:   -13.096      2.272      7.403
REMARK INTER + INTRA:         -13.096
REMARK INTER:                 -13.096
REMARK INTRA:                   0.000
REMARK UNBOUND:                 0.000
ROOT
REMARK  Name = tocopheryl nicotinate
REMARK                            x       y       z     vdW  Elec       q    Type
REMARK                         _______ _______ _______ _____ _____    ______ ____
ATOM      1  C   UNL     1      63.878  58.691  53.987  0.00  0.00    +0.000 C 
ATOM      2  C   UNL     1      63.615  59.290  53.483  0.00  0.00    +0.000 C 
ATOM      3  C   UNL     1      63.465  60.045  53.782  0.00  0.00    +0.000 C 
ATOM      4  C   UNL     1      63.503  59.134  52.681  0.00  0.00    +0.000 C 
ATOM      5  C   UNL     1      63.240  59.733  52.177  0.00  0.00    +0.000 C 
ATOM      6  C   UNL     1      63.128  59.576  51.375  0.00  0.00    +0.000 C 
ATOM      7  C   UNL     1      62.866  60.175  50.871  0.00  0.00    +0.000 C 
ATOM      8  C   UNL     1      62.754  60.019  50.069  0.00  0.00    +0.000 C 
ATOM      9  C   UNL     1      62.716  60.929  51.170  0.00  0.00    +0.000 C 
ATOM     10  C   UNL     1      62.828  61.085  51.972  0.00  0.00    +0.000 C 
ATOM     11  C   UNL     1      62.678  61.839  52.271  0.00  0.00    +0.000 C 
ATOM     12  C   UNL     1      62.790  61.996  53.073  0.00  0.00    +0.000 C 
ATOM     13  C   UNL     1      63.053  61.397  53.577  0.00  0.00    +0.000 C 
ATOM     14  C   UNL     1      62.640  62.750  53.371  0.00  0.00    +0.000 C 
ATOM     15  C   UNL     1      62.753  62.905  54.174  0.00  0.00    +0.000 C 
ATOM     16  C   UNL     1      62.602  63.659  54.472  0.00  0.00    +0.000 C 
ATOM     17  C   UNL     1      62.340  64.258  53.968  0.00  0.00    +0.000 C 
ATOM     18  C   UNL     1      62.407  63.637  53.430  0.00  0.00    +0.000 C 
ATOM     19  C   UNL     1      62.364  64.672  54.682  0.00  0.00    +0.000 C 
ATOM     20  C   UNL     1      62.149  65.468  54.704  0.00  0.00    +0.000 C 
ATOM     21  C   UNL     1      61.910  65.850  54.014  0.00  0.00    +0.000 A 
ATOM     22  C   UNL     1      61.695  66.647  54.037  0.00  0.00    +0.000 A 
ATOM     23  C   UNL     1      61.719  67.061  54.750  0.00  0.00    +0.000 C 
ATOM     24  C   UNL     1      61.456  67.030  53.346  0.00  0.00    +0.000 A 
ATOM     25  O   UNL     1      61.241  67.825  53.368  0.00  0.00    +0.000 OA
ATOM     26  C   UNL     1      61.265  68.239  54.081  0.00  0.00    +0.000 C 
ATOM     27  O   UNL     1      61.504  67.857  54.773  0.00  0.00    +0.000 OA
ATOM     28  C   UNL     1      61.050  69.035  54.104  0.00  0.00    +0.000 A 
ATOM     29  C   UNL     1      61.074  69.449  54.817  0.00  0.00    +0.000 A 
ATOM     30  N   UNL     1      60.859  70.246  54.840  0.00  0.00    +0.000 NA
ATOM     31  C   UNL     1      60.620  70.628  54.150  0.00  0.00    +0.000 A 
ATOM     32  C   UNL     1      60.596  70.214  53.437  0.00  0.00    +0.000 A 
ATOM     33  C   UNL     1      60.811  69.418  53.414  0.00  0.00    +0.000 A 
ATOM     34  C   UNL     1      61.432  66.616  52.632  0.00  0.00    +0.000 A 
ATOM     35  C   UNL     1      61.193  66.998  51.942  0.00  0.00    +0.000 C 
ATOM     36  C   UNL     1      61.647  65.820  52.610  0.00  0.00    +0.000 A 
ATOM     37  C   UNL     1      61.623  65.406  51.897  0.00  0.00    +0.000 C 
ATOM     38  C   UNL     1      61.886  65.437  53.301  0.00  0.00    +0.000 A 
ATOM     39  O   UNL     1      62.101  64.641  53.278  0.00  0.00    +0.000 OA
ENDROOT
TORSDOF 0
ENDMDL
MODEL 4
REMARK VINA RESULT:   -12.505     18.729     18.887
REMARK INTER + INTRA:         -12.505
REMARK INTER:                 -12.505
REMARK INTRA:                   0.000
REMARK UNBOUND:                 0.000
ROOT
REMARK  Name = tocopheryl nicotinate
REMARK                            x       y       z     vdW  Elec       q    Type
REMARK                         _______ _______ _______ _____ _____    ______ ____
ATOM      1  C   UNL     1      81.454  69.084  55.712  0.00  0.00    +0.000 C 
ATOM      2  C   UNL     1      81.328  68.314  55.983  0.00  0.00    +0.000 C 
ATOM      3  C   UNL     1      81.332  67.683  55.450  0.00  0.00    +0.000 C 
ATOM      4  C   UNL     1      81.200  68.175  56.786  0.00  0.00    +0.000 C 
ATOM      5  C   UNL     1      81.074  67.406  57.056  0.00  0.00    +0.000 C 
ATOM      6  C   UNL     1      80.946  67.267  57.859  0.00  0.00    +0.000 C 
ATOM      7  C   UNL     1      80.820  66.497  58.130  0.00  0.00    +0.000 C 
ATOM      8  C   UNL     1      80.692  66.359  58.933  0.00  0.00    +0.000 C 
ATOM      9  C   UNL     1      80.824  65.867  57.598  0.00  0.00    +0.000 C 
ATOM     10  C   UNL     1      80.953  66.007  56.795  0.00  0.00    +0.000 C 
ATOM     11  C   UNL     1      80.956  65.376  56.262  0.00  0.00    +0.000 C 
ATOM     12  C   UNL     1      81.085  65.515  55.459  0.00  0.00    +0.000 C 
ATOM     13  C   UNL     1      81.210  66.285  55.189  0.00  0.00    +0.000 C 
ATOM     14  C   UNL     1      81.088  64.884  54.927  0.00  0.00    +0.000 C 
ATOM     15  C   UNL     1      81.217  65.024  54.124  0.00  0.00    +0.000 C 
ATOM     16  C   UNL     1      81.220  64.394  53.592  0.00  0.00    +0.000 C 
ATOM     17  C   UNL     1      81.095  63.624  53.862  0.00  0.00    +0.000 C 
ATOM     18  C   UNL     1      81.042  64.037  54.574  0.00  0.00    +0.000 C 
ATOM     19  C   UNL     1      81.192  63.478  53.056  0.00  0.00    +0.000 C 
ATOM     20  C   UNL     1      81.145  62.707  52.768  0.00  0.00    +0.000 C 
ATOM     21  C   UNL     1      81.001  62.081  53.286  0.00  0.00    +0.000 A 
ATOM     22  C   UNL     1      80.954  61.309  52.997  0.00  0.00    +0.000 A 
ATOM     23  C   UNL     1      81.051  61.163  52.191  0.00  0.00    +0.000 C 
ATOM     24  C   UNL     1      80.811  60.683  53.516  0.00  0.00    +0.000 A 
ATOM     25  O   UNL     1      80.764  59.912  53.227  0.00  0.00    +0.000 OA
ATOM     26  C   UNL     1      80.861  59.766  52.421  0.00  0.00    +0.000 C 
ATOM     27  O   UNL     1      81.004  60.392  51.903  0.00  0.00    +0.000 OA
ATOM     28  C   UNL     1      80.814  58.995  52.133  0.00  0.00    +0.000 A 
ATOM     29  C   UNL     1      80.910  58.849  51.327  0.00  0.00    +0.000 A 
ATOM     30  N   UNL     1      80.864  58.077  51.038  0.00  0.00    +0.000 NA
ATOM     31  C   UNL     1      80.720  57.451  51.556  0.00  0.00    +0.000 A 
ATOM     32  C   UNL     1      80.623  57.597  52.362  0.00  0.00    +0.000 A 
ATOM     33  C   UNL     1      80.670  58.369  52.650  0.00  0.00    +0.000 A 
ATOM     34  C   UNL     1      80.714  60.829  54.322  0.00  0.00    +0.000 A 
ATOM     35  C   UNL     1      80.570  60.204  54.839  0.00  0.00    +0.000 C 
ATOM     36  C   UNL     1      80.761  61.601  54.610  0.00  0.00    +0.000 A 
ATOM     37  C   UNL     1      80.664  61.747  55.416  0.00  0.00    +0.000 C 
ATOM     38  C   UNL     1      80.904  62.227  54.092  0.00  0.00    +0.000 A 
ATOM     39  O   UNL     1      80.951  62.999  54.380  0.00  0.00    +0.000 OA
ENDROOT
TORSDOF 0
ENDMDL
MODEL 5
REMARK VINA RESULT:   -12.183      1.085      2.221
REMARK INTER + INTRA:         -12.183
REMARK INTER:                 -12.183
REMARK INTRA:                   0.000
REMARK UNBOUND:                 0.000
ROOT
REMARK  Name = tocopheryl nicotinate
REMARK                            x       y       z     vdW  Elec       q    Type
REMARK                         _______ _______ _______ _____ _____    ______ ____
ATOM      1  C   UNL     1      60.833  70.071  50.457  0.00  0.00    +0.000 C 
ATOM      2  C   UNL     1      61.135  69.575  51.044  0.00  0.00    +0.000 C 
ATOM      3  C   UNL     1      61.165  68.760  50.921  0.00  0.00    +0.000 C 
ATOM      4  C   UNL     1      61.406  69.896  51.754  0.00  0.00    +0.000 C 
ATOM      5  C   UNL     1      61.708  69.400  52.342  0.00  0.00    +0.000 C 
ATOM      6  C   UNL     1      61.979  69.721  53.052  0.00  0.00    +0.000 C 
ATOM      7  C   UNL     1      62.281  69.225  53.639  0.00  0.00    +0.000 C 
ATOM      8  C   UNL     1      62.552  69.546  54.349  0.00  0.00    +0.000 C 
ATOM      9  C   UNL     1      62.312  68.410  53.516  0.00  0.00    +0.000 C 
ATOM     10  C   UNL     1      62.040  68.091  52.805  0.00  0.00    +0.000 C 
ATOM     11  C   UNL     1      62.071  67.275  52.681  0.00  0.00    +0.000 C 
ATOM     12  C   UNL     1      61.800  66.955  51.971  0.00  0.00    +0.000 C 
ATOM     13  C   UNL     1      61.498  67.450  51.384  0.00  0.00    +0.000 C 
ATOM     14  C   UNL     1      61.830  66.140  51.848  0.00  0.00    +0.000 C 
ATOM     15  C   UNL     1      61.559  65.820  51.137  0.00  0.00    +0.000 C 
ATOM     16  C   UNL     1      61.589  65.005  51.014  0.00  0.00    +0.000 C 
ATOM     17  C   UNL     1      61.891  64.509  51.601  0.00  0.00    +0.000 C 
ATOM     18  C   UNL     1      61.976  65.241  51.973  0.00  0.00    +0.000 C 
ATOM     19  C   UNL     1      61.702  63.950  51.025  0.00  0.00    +0.000 C 
ATOM     20  C   UNL     1      61.844  63.149  51.166  0.00  0.00    +0.000 C 
ATOM     21  C   UNL     1      62.175  62.909  51.881  0.00  0.00    +0.000 A 
ATOM     22  C   UNL     1      62.317  62.108  52.021  0.00  0.00    +0.000 A 
ATOM     23  C   UNL     1      62.127  61.548  51.446  0.00  0.00    +0.000 C 
ATOM     24  C   UNL     1      62.648  61.867  52.738  0.00  0.00    +0.000 A 
ATOM     25  O   UNL     1      62.790  61.066  52.878  0.00  0.00    +0.000 OA
ATOM     26  C   UNL     1      62.601  60.507  52.302  0.00  0.00    +0.000 C 
ATOM     27  O   UNL     1      62.269  60.748  51.586  0.00  0.00    +0.000 OA
ATOM     28  C   UNL     1      62.742  59.707  52.442  0.00  0.00    +0.000 A 
ATOM     29  C   UNL     1      62.553  59.147  51.867  0.00  0.00    +0.000 A 
ATOM     30  N   UNL     1      62.695  58.346  52.007  0.00  0.00    +0.000 NA
ATOM     31  C   UNL     1      63.026  58.105  52.722  0.00  0.00    +0.000 A 
ATOM     32  C   UNL     1      63.215  58.665  53.298  0.00  0.00    +0.000 A 
ATOM     33  C   UNL     1      63.073  59.465  53.158  0.00  0.00    +0.000 A 
ATOM     34  C   UNL     1      62.837  62.426  53.314  0.00  0.00    +0.000 A 
ATOM     35  C   UNL     1      63.168  62.186  54.029  0.00  0.00    +0.000 C 
ATOM     36  C   UNL     1      62.695  63.227  53.173  0.00  0.00    +0.000 A 
ATOM     37  C   UNL     1      62.885  63.786  53.749  0.00  0.00    +0.000 C 
ATOM     38  C   UNL     1      62.364  63.468  52.457  0.00  0.00    +0.000 A 
ATOM     39  O   UNL     1      62.222  64.269  52.317  0.00  0.00    +0.000 OA
ENDROOT
TORSDOF 0
ENDMDL
MODEL 6
REMARK VINA RESULT:   -11.691     20.574     22.185
REMARK INTER + INTRA:         -11.691
REMARK INTER:                 -11.691
REMARK INTRA:                   0.000
REMARK UNBOUND:                 0.000
ROOT
REMARK  Name = tocopheryl nicotinate
REMARK                            x       y       z     vdW  Elec       q    Type
REMARK                         _______ _______ _______ _____ _____    ______ ____
ATOM      1  C   UNL     1      81.500  67.667  53.352  0.00  0.00    +0.000 C 
ATOM      2  C   UNL     1      81.444  68.403  53.721  0.00  0.00    +0.000 C 
ATOM      3  C   UNL     1      81.426  69.092  53.268  0.00  0.00    +0.000 C 
ATOM      4  C   UNL     1      81.407  68.449  54.544  0.00  0.00    +0.000 C 
ATOM      5  C   UNL     1      81.351  69.185  54.913  0.00  0.00    +0.000 C 
ATOM      6  C   UNL     1      81.313  69.231  55.736  0.00  0.00    +0.000 C 
ATOM      7  C   UNL     1      81.258  69.967  56.106  0.00  0.00    +0.000 C 
ATOM      8  C   UNL     1      81.220  70.013  56.929  0.00  0.00    +0.000 C 
ATOM      9  C   UNL     1      81.240  70.656  55.652  0.00  0.00    +0.000 C 
ATOM     10  C   UNL     1      81.278  70.609  54.829  0.00  0.00    +0.000 C 
ATOM     11  C   UNL     1      81.260  71.298  54.376  0.00  0.00    +0.000 C 
ATOM     12  C   UNL     1      81.297  71.252  53.553  0.00  0.00    +0.000 C 
ATOM     13  C   UNL     1      81.353  70.516  53.184  0.00  0.00    +0.000 C 
ATOM     14  C   UNL     1      81.280  71.941  53.100  0.00  0.00    +0.000 C 
ATOM     15  C   UNL     1      81.317  71.894  52.277  0.00  0.00    +0.000 C 
ATOM     16  C   UNL     1      81.300  72.583  51.824  0.00  0.00    +0.000 C 
ATOM     17  C   UNL     1      81.244  73.320  52.193  0.00  0.00    +0.000 C 
ATOM     18  C   UNL     1      81.242  72.827  52.854  0.00  0.00    +0.000 C 
ATOM     19  C   UNL     1      81.265  73.557  51.404  0.00  0.00    +0.000 C 
ATOM     20  C   UNL     1      81.230  74.359  51.213  0.00  0.00    +0.000 C 
ATOM     21  C   UNL     1      81.174  74.923  51.812  0.00  0.00    +0.000 A 
ATOM     22  C   UNL     1      81.138  75.725  51.621  0.00  0.00    +0.000 A 
ATOM     23  C   UNL     1      81.159  75.963  50.831  0.00  0.00    +0.000 C 
ATOM     24  C   UNL     1      81.082  76.290  52.221  0.00  0.00    +0.000 A 
ATOM     25  O   UNL     1      81.047  77.091  52.030  0.00  0.00    +0.000 OA
ATOM     26  C   UNL     1      81.068  77.329  51.241  0.00  0.00    +0.000 C 
ATOM     27  O   UNL     1      81.124  76.765  50.641  0.00  0.00    +0.000 OA
ATOM     28  C   UNL     1      81.033  78.131  51.050  0.00  0.00    +0.000 A 
ATOM     29  C   UNL     1      81.054  78.368  50.260  0.00  0.00    +0.000 A 
ATOM     30  N   UNL     1      81.019  79.171  50.069  0.00  0.00    +0.000 NA
ATOM     31  C   UNL     1      80.963  79.735  50.668  0.00  0.00    +0.000 A 
ATOM     32  C   UNL     1      80.942  79.497  51.458  0.00  0.00    +0.000 A 
ATOM     33  C   UNL     1      80.977  78.695  51.648  0.00  0.00    +0.000 A 
ATOM     34  C   UNL     1      81.061  76.052  53.010  0.00  0.00    +0.000 A 
ATOM     35  C   UNL     1      81.005  76.616  53.609  0.00  0.00    +0.000 C 
ATOM     36  C   UNL     1      81.096  75.250  53.201  0.00  0.00    +0.000 A 
ATOM     37  C   UNL     1      81.076  75.012  53.990  0.00  0.00    +0.000 C 
ATOM     38  C   UNL     1      81.153  74.685  52.602  0.00  0.00    +0.000 A 
ATOM     39  O   UNL     1      81.188  73.883  52.792  0.00  0.00    +0.000 OA
ENDROOT
TORSDOF 0
ENDMDL
MODEL 7
REMARK VINA RESULT:   -11.329     18.961     20.415
REMARK INTER + INTRA:         -11.329
REMARK INTER:                 -11.329
REMARK INTRA:                   0.000
REMARK UNBOUND:                 0.000
ROOT
REMARK  Name = tocopheryl nicotinate
REMARK                            x       y       z     vdW  Elec       q    Type
REMARK                         _______ _______ _______ _____ _____    ______ ____
ATOM      1  C   UNL     1      80.357  60.522  55.191  0.00  0.00    +0.000 C 
ATOM      2  C   UNL     1      80.598  61.078  54.631  0.00  0.00    +0.000 C 
ATOM      3  C   UNL     1      80.605  61.881  54.822  0.00  0.00    +0.000 C 
ATOM      4  C   UNL     1      80.831  60.831  53.879  0.00  0.00    +0.000 C 
ATOM      5  C   UNL     1      81.072  61.387  53.319  0.00  0.00    +0.000 C 
ATOM      6  C   UNL     1      81.306  61.140  52.567  0.00  0.00    +0.000 C 
ATOM      7  C   UNL     1      81.547  61.696  52.007  0.00  0.00    +0.000 C 
ATOM      8  C   UNL     1      81.780  61.448  51.255  0.00  0.00    +0.000 C 
ATOM      9  C   UNL     1      81.554  62.498  52.198  0.00  0.00    +0.000 C 
ATOM     10  C   UNL     1      81.320  62.744  52.950  0.00  0.00    +0.000 C 
ATOM     11  C   UNL     1      81.327  63.547  53.141  0.00  0.00    +0.000 C 
ATOM     12  C   UNL     1      81.093  63.794  53.893  0.00  0.00    +0.000 C 
ATOM     13  C   UNL     1      80.852  63.238  54.454  0.00  0.00    +0.000 C 
ATOM     14  C   UNL     1      81.100  64.597  54.084  0.00  0.00    +0.000 C 
ATOM     15  C   UNL     1      80.866  64.843  54.836  0.00  0.00    +0.000 C 
ATOM     16  C   UNL     1      80.873  65.645  55.028  0.00  0.00    +0.000 C 
ATOM     17  C   UNL     1      81.114  66.202  54.467  0.00  0.00    +0.000 C 
ATOM     18  C   UNL     1      81.201  65.509  54.028  0.00  0.00    +0.000 C 
ATOM     19  C   UNL     1      80.944  66.702  55.100  0.00  0.00    +0.000 C 
ATOM     20  C   UNL     1      81.044  67.517  55.021  0.00  0.00    +0.000 C 
ATOM     21  C   UNL     1      81.315  67.831  54.309  0.00  0.00    +0.000 A 
ATOM     22  C   UNL     1      81.415  68.647  54.230  0.00  0.00    +0.000 A 
ATOM     23  C   UNL     1      81.244  69.147  54.863  0.00  0.00    +0.000 C 
ATOM     24  C   UNL     1      81.686  68.962  53.517  0.00  0.00    +0.000 A 
ATOM     25  O   UNL     1      81.786  69.777  53.438  0.00  0.00    +0.000 OA
ATOM     26  C   UNL     1      81.616  70.277  54.071  0.00  0.00    +0.000 C 
ATOM     27  O   UNL     1      81.344  69.962  54.784  0.00  0.00    +0.000 OA
ATOM     28  C   UNL     1      81.716  71.091  53.992  0.00  0.00    +0.000 A 
ATOM     29  C   UNL     1      81.545  71.592  54.625  0.00  0.00    +0.000 A 
ATOM     30  N   UNL     1      81.645  72.407  54.546  0.00  0.00    +0.000 NA
ATOM     31  C   UNL     1      81.916  72.722  53.834  0.00  0.00    +0.000 A 
ATOM     32  C   UNL     1      82.087  72.222  53.201  0.00  0.00    +0.000 A 
ATOM     33  C   UNL     1      81.987  71.407  53.280  0.00  0.00    +0.000 A 
ATOM     34  C   UNL     1      81.857  68.462  52.884  0.00  0.00    +0.000 A 
ATOM     35  C   UNL     1      82.128  68.776  52.171  0.00  0.00    +0.000 C 
ATOM     36  C   UNL     1      81.756  67.647  52.963  0.00  0.00    +0.000 A 
ATOM     37  C   UNL     1      81.927  67.147  52.329  0.00  0.00    +0.000 C 
ATOM     38  C   UNL     1      81.485  67.331  53.676  0.00  0.00    +0.000 A 
ATOM     39  O   UNL     1      81.385  66.516  53.755  0.00  0.00    +0.000 OA
ENDROOT
TORSDOF 0
ENDMDL
MODEL 8
REMARK VINA RESULT:   -11.041     18.627     18.886
REMARK INTER + INTRA:         -11.041
REMARK INTER:                 -11.041
REMARK INTRA:                   0.000
REMARK UNBOUND:                 0.000
ROOT
REMARK  Name = tocopheryl nicotinate
REMARK                            x       y       z     vdW  Elec       q    Type
REMARK                         _______ _______ _______ _____ _____    ______ ____
ATOM      1  C   UNL     1      80.773  69.582  56.604  0.00  0.00    +0.000 C 
ATOM      2  C   UNL     1      80.956  69.181  55.906  0.00  0.00    +0.000 C 
ATOM      3  C   UNL     1      80.893  68.359  55.873  0.00  0.00    +0.000 C 
ATOM      4  C   UNL     1      81.202  69.603  55.241  0.00  0.00    +0.000 C 
ATOM      5  C   UNL     1      81.386  69.202  54.543  0.00  0.00    +0.000 C 
ATOM      6  C   UNL     1      81.632  69.624  53.878  0.00  0.00    +0.000 C 
ATOM      7  C   UNL     1      81.815  69.223  53.180  0.00  0.00    +0.000 C 
ATOM      8  C   UNL     1      82.061  69.645  52.515  0.00  0.00    +0.000 C 
ATOM      9  C   UNL     1      81.751  68.401  53.147  0.00  0.00    +0.000 C 
ATOM     10  C   UNL     1      81.505  67.980  53.813  0.00  0.00    +0.000 C 
ATOM     11  C   UNL     1      81.442  67.158  53.780  0.00  0.00    +0.000 C 
ATOM     12  C   UNL     1      81.196  66.736  54.445  0.00  0.00    +0.000 C 
ATOM     13  C   UNL     1      81.013  67.137  55.143  0.00  0.00    +0.000 C 
ATOM     14  C   UNL     1      81.133  65.914  54.412  0.00  0.00    +0.000 C 
ATOM     15  C   UNL     1      80.886  65.493  55.078  0.00  0.00    +0.000 C 
ATOM     16  C   UNL     1      80.823  64.672  55.045  0.00  0.00    +0.000 C 
ATOM     17  C   UNL     1      81.006  64.271  54.347  0.00  0.00    +0.000 C 
ATOM     18  C   UNL     1      81.150  65.047  54.109  0.00  0.00    +0.000 C 
ATOM     19  C   UNL     1      80.799  63.633  54.828  0.00  0.00    +0.000 C 
ATOM     20  C   UNL     1      80.824  62.865  54.528  0.00  0.00    +0.000 C 
ATOM     21  C   UNL     1      81.057  62.735  53.748  0.00  0.00    +0.000 A 
ATOM     22  C   UNL     1      81.082  61.966  53.448  0.00  0.00    +0.000 A 
ATOM     23  C   UNL     1      80.875  61.328  53.929  0.00  0.00    +0.000 C 
ATOM     24  C   UNL     1      81.315  61.835  52.667  0.00  0.00    +0.000 A 
ATOM     25  O   UNL     1      81.340  61.067  52.368  0.00  0.00    +0.000 OA
ATOM     26  C   UNL     1      81.133  60.430  52.848  0.00  0.00    +0.000 C 
ATOM     27  O   UNL     1      80.900  60.560  53.629  0.00  0.00    +0.000 OA
ATOM     28  C   UNL     1      81.158  59.662  52.548  0.00  0.00    +0.000 A 
ATOM     29  C   UNL     1      80.951  59.024  53.029  0.00  0.00    +0.000 A 
ATOM     30  N   UNL     1      80.976  58.256  52.729  0.00  0.00    +0.000 NA
ATOM     31  C   UNL     1      81.209  58.125  51.949  0.00  0.00    +0.000 A 
ATOM     32  C   UNL     1      81.416  58.763  51.469  0.00  0.00    +0.000 A 
ATOM     33  C   UNL     1      81.391  59.531  51.768  0.00  0.00    +0.000 A 
ATOM     34  C   UNL     1      81.523  62.473  52.187  0.00  0.00    +0.000 A 
ATOM     35  C   UNL     1      81.756  62.342  51.407  0.00  0.00    +0.000 C 
ATOM     36  C   UNL     1      81.497  63.241  52.486  0.00  0.00    +0.000 A 
ATOM     37  C   UNL     1      81.705  63.878  52.006  0.00  0.00    +0.000 C 
ATOM     38  C   UNL     1      81.264  63.372  53.267  0.00  0.00    +0.000 A 
ATOM     39  O   UNL     1      81.239  64.140  53.567  0.00  0.00    +0.000 OA
ENDROOT
TORSDOF 0
ENDMDL
MODEL 9
REMARK VINA RESULT:   -10.937     18.784     20.246
REMARK INTER + INTRA:         -10.937
REMARK INTER:                 -10.937
REMARK INTRA:                   0.000
REMARK UNBOUND:                 0.000
ROOT
REMARK  Name = tocopheryl nicotinate
REMARK                            x       y       z     vdW  Elec       q    Type
REMARK                         _______ _______ _______ _____ _____    ______ ____
ATOM      1  C   UNL     1      80.631  58.889  52.787  0.00  0.00    +0.000 C 
ATOM      2  C   UNL     1      80.867  59.633  52.517  0.00  0.00    +0.000 C 
ATOM      3  C   UNL     1      80.806  60.290  53.013  0.00  0.00    +0.000 C 
ATOM      4  C   UNL     1      81.165  59.718  51.753  0.00  0.00    +0.000 C 
ATOM      5  C   UNL     1      81.401  60.462  51.483  0.00  0.00    +0.000 C 
ATOM      6  C   UNL     1      81.699  60.547  50.719  0.00  0.00    +0.000 C 
ATOM      7  C   UNL     1      81.935  61.291  50.449  0.00  0.00    +0.000 C 
ATOM      8  C   UNL     1      82.232  61.377  49.685  0.00  0.00    +0.000 C 
ATOM      9  C   UNL     1      81.874  61.948  50.944  0.00  0.00    +0.000 C 
ATOM     10  C   UNL     1      81.576  61.861  51.709  0.00  0.00    +0.000 C 
ATOM     11  C   UNL     1      81.514  62.518  52.204  0.00  0.00    +0.000 C 
ATOM     12  C   UNL     1      81.217  62.433  52.969  0.00  0.00    +0.000 C 
ATOM     13  C   UNL     1      80.981  61.689  53.238  0.00  0.00    +0.000 C 
ATOM     14  C   UNL     1      81.155  63.090  53.464  0.00  0.00    +0.000 C 
ATOM     15  C   UNL     1      80.858  63.003  54.229  0.00  0.00    +0.000 C 
ATOM     16  C   UNL     1      80.796  63.660  54.724  0.00  0.00    +0.000 C 
ATOM     17  C   UNL     1      81.032  64.404  54.454  0.00  0.00    +0.000 C 
ATOM     18  C   UNL     1      81.196  63.950  53.785  0.00  0.00    +0.000 C 
ATOM     19  C   UNL     1      80.787  64.600  55.217  0.00  0.00    +0.000 C 
ATOM     20  C   UNL     1      80.835  65.380  55.478  0.00  0.00    +0.000 C 
ATOM     21  C   UNL     1      81.128  65.966  54.977  0.00  0.00    +0.000 A 
ATOM     22  C   UNL     1      81.175  66.747  55.238  0.00  0.00    +0.000 A 
ATOM     23  C   UNL     1      80.930  66.943  56.001  0.00  0.00    +0.000 C 
ATOM     24  C   UNL     1      81.468  67.333  54.736  0.00  0.00    +0.000 A 
ATOM     25  O   UNL     1      81.516  68.114  54.997  0.00  0.00    +0.000 OA
ATOM     26  C   UNL     1      81.271  68.309  55.760  0.00  0.00    +0.000 C 
ATOM     27  O   UNL     1      80.978  67.724  56.262  0.00  0.00    +0.000 OA
ATOM     28  C   UNL     1      81.318  69.090  56.021  0.00  0.00    +0.000 A 
ATOM     29  C   UNL     1      81.073  69.286  56.784  0.00  0.00    +0.000 A 
ATOM     30  N   UNL     1      81.121  70.068  57.046  0.00  0.00    +0.000 NA
ATOM     31  C   UNL     1      81.414  70.653  56.544  0.00  0.00    +0.000 A 
ATOM     32  C   UNL     1      81.659  70.457  55.781  0.00  0.00    +0.000 A 
ATOM     33  C   UNL     1      81.611  69.676  55.520  0.00  0.00    +0.000 A 
ATOM     34  C   UNL     1      81.713  67.137  53.973  0.00  0.00    +0.000 A 
ATOM     35  C   UNL     1      82.006  67.722  53.471  0.00  0.00    +0.000 C 
ATOM     36  C   UNL     1      81.666  66.356  53.712  0.00  0.00    +0.000 A 
ATOM     37  C   UNL     1      81.911  66.161  52.949  0.00  0.00    +0.000 C 
ATOM     38  C   UNL     1      81.373  65.770  54.214  0.00  0.00    +0.000 A 
ATOM     39  O   UNL     1      81.325  64.989  53.953  0.00  0.00    +0.000 OA
ENDROOT
TORSDOF 0
ENDMDL
