MODEL 1
REMARK VINA RESULT:   -12.634      0.000      0.000
REMARK INTER + INTRA:         -12.634
REMARK INTER:                 -12.634
REMARK INTRA:                   0.000
REMARK UNBOUND:                 0.000
ROOT
REMARK  Name = tofisopam
REMARK                            x       y       z     vdW  Elec       q    Type
REMARK                         _______ _______ _______ _____ _____    ______ ____
ATOM      1  C   UNL     1      61.975  60.908  71.806  0.00  0.00    +0.000 C 
ATOM      2  C   UNL     1      61.617  61.498  71.355  0.00  0.00    +0.000 C 
ATOM      3  C   UNL     1      61.429  62.225  71.699  0.00  0.00    +0.000 C 
ATOM      4  C   UNL     1      61.072  62.776  71.200  0.00  0.00    +0.000 A 
ATOM      5  C   UNL     1      60.976  62.475  70.437  0.00  0.00    +0.000 A 
ATOM      6  C   UNL     1      60.629  62.939  69.851  0.00  0.00    +0.000 A 
ATOM      7  O   UNL     1      60.533  62.638  69.090  0.00  0.00    +0.000 OA
ATOM      8  C   UNL     1      60.185  63.102  68.503  0.00  0.00    +0.000 C 
ATOM      9  C   UNL     1      60.378  63.705  70.027  0.00  0.00    +0.000 A 
ATOM     10  O   UNL     1      60.030  64.170  69.440  0.00  0.00    +0.000 OA
ATOM     11  C   UNL     1      59.780  64.935  69.616  0.00  0.00    +0.000 C 
ATOM     12  C   UNL     1      60.474  64.007  70.788  0.00  0.00    +0.000 A 
ATOM     13  C   UNL     1      60.821  63.542  71.375  0.00  0.00    +0.000 A 
ATOM     14  C   UNL     1      60.865  63.945  72.093  0.00  0.00    +0.000 C 
ATOM     15  N   UNL     1      61.170  63.684  72.813  0.00  0.00    +0.000 NA
ATOM     16  N   UNL     1      61.508  62.952  72.993  0.00  0.00    +0.000 NA
ATOM     17  C   UNL     1      61.623  62.303  72.497  0.00  0.00    +0.000 C 
ATOM     18  C   UNL     1      61.979  61.645  72.846  0.00  0.00    +0.000 C 
ATOM     19  C   UNL     1      60.563  64.714  72.090  0.00  0.00    +0.000 A 
ATOM     20  C   UNL     1      60.244  65.030  71.398  0.00  0.00    +0.000 A 
ATOM     21  C   UNL     1      59.943  65.797  71.397  0.00  0.00    +0.000 A 
ATOM     22  O   UNL     1      59.624  66.113  70.704  0.00  0.00    +0.000 OA
ATOM     23  C   UNL     1      59.322  66.881  70.702  0.00  0.00    +0.000 C 
ATOM     24  C   UNL     1      59.960  66.249  72.086  0.00  0.00    +0.000 A 
ATOM     25  O   UNL     1      59.658  67.017  72.084  0.00  0.00    +0.000 OA
ATOM     26  C   UNL     1      59.339  67.333  71.391  0.00  0.00    +0.000 C 
ATOM     27  C   UNL     1      60.279  65.933  72.779  0.00  0.00    +0.000 A 
ATOM     28  C   UNL     1      60.580  65.166  72.781  0.00  0.00    +0.000 A 
ENDROOT
TORSDOF 0
ENDMDL
MODEL 2
REMARK VINA RESULT:   -12.452      1.892      2.846
REMARK INTER + INTRA:         -12.452
REMARK INTER:                 -12.452
REMARK INTRA:                   0.000
REMARK UNBOUND:                 0.000
ROOT
REMARK  Name = tofisopam
REMARK                            x       y       z     vdW  Elec       q    Type
REMARK                         _______ _______ _______ _____ _____    ______ ____
ATOM      1  C   UNL     1      60.251  61.932  70.969  0.00  0.00    +0.000 C 
ATOM      2  C   UNL     1      60.135  62.680  71.298  0.00  0.00    +0.000 C 
ATOM      3  C   UNL     1      60.769  63.205  71.362  0.00  0.00    +0.000 C 
ATOM      4  C   UNL     1      60.594  63.937  71.699  0.00  0.00    +0.000 A 
ATOM      5  C   UNL     1      59.798  63.992  71.907  0.00  0.00    +0.000 A 
ATOM      6  C   UNL     1      59.508  64.681  72.253  0.00  0.00    +0.000 A 
ATOM      7  O   UNL     1      58.712  64.735  72.461  0.00  0.00    +0.000 OA
ATOM      8  C   UNL     1      58.421  65.426  72.808  0.00  0.00    +0.000 C 
ATOM      9  C   UNL     1      60.014  65.318  72.392  0.00  0.00    +0.000 A 
ATOM     10  O   UNL     1      59.725  66.008  72.739  0.00  0.00    +0.000 OA
ATOM     11  C   UNL     1      60.231  66.644  72.877  0.00  0.00    +0.000 C 
ATOM     12  C   UNL     1      60.810  65.264  72.184  0.00  0.00    +0.000 A 
ATOM     13  C   UNL     1      61.101  64.574  71.837  0.00  0.00    +0.000 A 
ATOM     14  C   UNL     1      61.907  64.634  71.673  0.00  0.00    +0.000 C 
ATOM     15  N   UNL     1      62.406  64.074  71.331  0.00  0.00    +0.000 NA
ATOM     16  N   UNL     1      62.221  63.314  71.067  0.00  0.00    +0.000 NA
ATOM     17  C   UNL     1      61.493  62.927  71.081  0.00  0.00    +0.000 C 
ATOM     18  C   UNL     1      61.488  62.162  70.773  0.00  0.00    +0.000 C 
ATOM     19  C   UNL     1      62.261  65.351  71.880  0.00  0.00    +0.000 A 
ATOM     20  C   UNL     1      61.811  65.949  72.227  0.00  0.00    +0.000 A 
ATOM     21  C   UNL     1      62.165  66.664  72.433  0.00  0.00    +0.000 A 
ATOM     22  O   UNL     1      61.715  67.262  72.780  0.00  0.00    +0.000 OA
ATOM     23  C   UNL     1      62.070  67.979  72.986  0.00  0.00    +0.000 C 
ATOM     24  C   UNL     1      62.969  66.782  72.293  0.00  0.00    +0.000 A 
ATOM     25  O   UNL     1      63.324  67.498  72.499  0.00  0.00    +0.000 OA
ATOM     26  C   UNL     1      62.873  68.097  72.846  0.00  0.00    +0.000 C 
ATOM     27  C   UNL     1      63.420  66.184  71.945  0.00  0.00    +0.000 A 
ATOM     28  C   UNL     1      63.065  65.469  71.739  0.00  0.00    +0.000 A 
ENDROOT
TORSDOF 0
ENDMDL
MODEL 3
REMARK VINA RESULT:   -12.257      3.023      4.019
REMARK INTER + INTRA:         -12.257
REMARK INTER:                 -12.257
REMARK INTRA:                   0.000
REMARK UNBOUND:                 0.000
ROOT
REMARK  Name = tofisopam
REMARK                            x       y       z     vdW  Elec       q    Type
REMARK                         _______ _______ _______ _____ _____    ______ ____
ATOM      1  C   UNL     1      59.952  63.097  71.700  0.00  0.00    +0.000 C 
ATOM      2  C   UNL     1      60.344  63.806  71.860  0.00  0.00    +0.000 C 
ATOM      3  C   UNL     1      61.105  63.932  71.566  0.00  0.00    +0.000 C 
ATOM      4  C   UNL     1      61.446  64.658  71.758  0.00  0.00    +0.000 A 
ATOM      5  C   UNL     1      60.940  65.118  72.219  0.00  0.00    +0.000 A 
ATOM      6  C   UNL     1      61.176  65.866  72.472  0.00  0.00    +0.000 A 
ATOM      7  O   UNL     1      60.670  66.325  72.932  0.00  0.00    +0.000 OA
ATOM      8  C   UNL     1      60.906  67.074  73.185  0.00  0.00    +0.000 C 
ATOM      9  C   UNL     1      61.920  66.155  72.264  0.00  0.00    +0.000 A 
ATOM     10  O   UNL     1      62.158  66.904  72.516  0.00  0.00    +0.000 OA
ATOM     11  C   UNL     1      62.901  67.193  72.308  0.00  0.00    +0.000 C 
ATOM     12  C   UNL     1      62.428  65.696  71.803  0.00  0.00    +0.000 A 
ATOM     13  C   UNL     1      62.191  64.947  71.550  0.00  0.00    +0.000 A 
ATOM     14  C   UNL     1      62.776  64.582  71.098  0.00  0.00    +0.000 C 
ATOM     15  N   UNL     1      62.763  63.838  70.743  0.00  0.00    +0.000 NA
ATOM     16  N   UNL     1      62.160  63.274  70.752  0.00  0.00    +0.000 NA
ATOM     17  C   UNL     1      61.422  63.317  71.118  0.00  0.00    +0.000 C 
ATOM     18  C   UNL     1      60.937  62.655  71.023  0.00  0.00    +0.000 C 
ATOM     19  C   UNL     1      63.467  65.020  70.987  0.00  0.00    +0.000 A 
ATOM     20  C   UNL     1      63.538  65.771  71.319  0.00  0.00    +0.000 A 
ATOM     21  C   UNL     1      64.228  66.208  71.208  0.00  0.00    +0.000 A 
ATOM     22  O   UNL     1      64.298  66.960  71.541  0.00  0.00    +0.000 OA
ATOM     23  C   UNL     1      64.990  67.397  71.429  0.00  0.00    +0.000 C 
ATOM     24  C   UNL     1      64.848  65.894  70.765  0.00  0.00    +0.000 A 
ATOM     25  O   UNL     1      65.540  66.331  70.653  0.00  0.00    +0.000 OA
ATOM     26  C   UNL     1      65.610  67.083  70.986  0.00  0.00    +0.000 C 
ATOM     27  C   UNL     1      64.778  65.141  70.432  0.00  0.00    +0.000 A 
ATOM     28  C   UNL     1      64.088  64.705  70.544  0.00  0.00    +0.000 A 
ENDROOT
TORSDOF 0
ENDMDL
MODEL 4
REMARK VINA RESULT:   -12.156      3.274      4.694
REMARK INTER + INTRA:         -12.156
REMARK INTER:                 -12.156
REMARK INTRA:                   0.000
REMARK UNBOUND:                 0.000
ROOT
REMARK  Name = tofisopam
REMARK                            x       y       z     vdW  Elec       q    Type
REMARK                         _______ _______ _______ _____ _____    ______ ____
ATOM      1  C   UNL     1      65.727  67.615  70.988  0.00  0.00    +0.000 C 
ATOM      2  C   UNL     1      64.985  67.450  71.309  0.00  0.00    +0.000 C 
ATOM      3  C   UNL     1      64.606  66.740  71.127  0.00  0.00    +0.000 C 
ATOM      4  C   UNL     1      63.867  66.629  71.476  0.00  0.00    +0.000 A 
ATOM      5  C   UNL     1      63.657  67.272  71.949  0.00  0.00    +0.000 A 
ATOM      6  C   UNL     1      62.936  67.272  72.349  0.00  0.00    +0.000 A 
ATOM      7  O   UNL     1      62.726  67.915  72.821  0.00  0.00    +0.000 OA
ATOM      8  C   UNL     1      62.005  67.915  73.222  0.00  0.00    +0.000 C 
ATOM      9  C   UNL     1      62.424  66.629  72.278  0.00  0.00    +0.000 A 
ATOM     10  O   UNL     1      61.703  66.628  72.678  0.00  0.00    +0.000 OA
ATOM     11  C   UNL     1      61.192  65.986  72.606  0.00  0.00    +0.000 C 
ATOM     12  C   UNL     1      62.633  65.986  71.806  0.00  0.00    +0.000 A 
ATOM     13  C   UNL     1      63.355  65.986  71.405  0.00  0.00    +0.000 A 
ATOM     14  C   UNL     1      63.457  65.295  70.966  0.00  0.00    +0.000 C 
ATOM     15  N   UNL     1      64.094  65.076  70.491  0.00  0.00    +0.000 NA
ATOM     16  N   UNL     1      64.789  65.495  70.337  0.00  0.00    +0.000 NA
ATOM     17  C   UNL     1      65.016  66.235  70.620  0.00  0.00    +0.000 C 
ATOM     18  C   UNL     1      65.752  66.506  70.362  0.00  0.00    +0.000 C 
ATOM     19  C   UNL     1      62.838  64.750  71.009  0.00  0.00    +0.000 A 
ATOM     20  C   UNL     1      62.174  64.915  71.469  0.00  0.00    +0.000 A 
ATOM     21  C   UNL     1      61.556  64.370  71.511  0.00  0.00    +0.000 A 
ATOM     22  O   UNL     1      60.891  64.536  71.972  0.00  0.00    +0.000 OA
ATOM     23  C   UNL     1      60.273  63.991  72.014  0.00  0.00    +0.000 C 
ATOM     24  C   UNL     1      61.602  63.661  71.093  0.00  0.00    +0.000 A 
ATOM     25  O   UNL     1      60.983  63.116  71.135  0.00  0.00    +0.000 OA
ATOM     26  C   UNL     1      60.319  63.282  71.596  0.00  0.00    +0.000 C 
ATOM     27  C   UNL     1      62.266  63.496  70.632  0.00  0.00    +0.000 A 
ATOM     28  C   UNL     1      62.884  64.040  70.590  0.00  0.00    +0.000 A 
ENDROOT
TORSDOF 0
ENDMDL
MODEL 5
REMARK VINA RESULT:   -11.910      2.117      4.424
REMARK INTER + INTRA:         -11.910
REMARK INTER:                 -11.910
REMARK INTRA:                   0.000
REMARK UNBOUND:                 0.000
ROOT
REMARK  Name = tofisopam
REMARK                            x       y       z     vdW  Elec       q    Type
REMARK                         _______ _______ _______ _____ _____    ______ ____
ATOM      1  C   UNL     1      63.010  68.640  72.949  0.00  0.00    +0.000 C 
ATOM      2  C   UNL     1      62.386  68.104  72.894  0.00  0.00    +0.000 C 
ATOM      3  C   UNL     1      62.510  67.359  72.559  0.00  0.00    +0.000 C 
ATOM      4  C   UNL     1      61.849  66.866  72.530  0.00  0.00    +0.000 A 
ATOM      5  C   UNL     1      61.184  67.232  72.852  0.00  0.00    +0.000 A 
ATOM      6  C   UNL     1      60.463  66.832  72.876  0.00  0.00    +0.000 A 
ATOM      7  O   UNL     1      59.799  67.199  73.198  0.00  0.00    +0.000 OA
ATOM      8  C   UNL     1      59.077  66.799  73.222  0.00  0.00    +0.000 C 
ATOM      9  C   UNL     1      60.408  66.065  72.579  0.00  0.00    +0.000 A 
ATOM     10  O   UNL     1      59.687  65.664  72.603  0.00  0.00    +0.000 OA
ATOM     11  C   UNL     1      59.632  64.897  72.306  0.00  0.00    +0.000 C 
ATOM     12  C   UNL     1      61.072  65.697  72.257  0.00  0.00    +0.000 A 
ATOM     13  C   UNL     1      61.794  66.098  72.232  0.00  0.00    +0.000 A 
ATOM     14  C   UNL     1      62.385  65.635  71.891  0.00  0.00    +0.000 C 
ATOM     15  N   UNL     1      63.177  65.824  71.762  0.00  0.00    +0.000 NA
ATOM     16  N   UNL     1      63.574  66.525  71.943  0.00  0.00    +0.000 NA
ATOM     17  C   UNL     1      63.277  67.208  72.298  0.00  0.00    +0.000 C 
ATOM     18  C   UNL     1      63.820  67.820  72.406  0.00  0.00    +0.000 C 
ATOM     19  C   UNL     1      62.152  64.882  71.645  0.00  0.00    +0.000 A 
ATOM     20  C   UNL     1      61.371  64.637  71.749  0.00  0.00    +0.000 A 
ATOM     21  C   UNL     1      61.139  63.885  71.503  0.00  0.00    +0.000 A 
ATOM     22  O   UNL     1      60.357  63.641  71.607  0.00  0.00    +0.000 OA
ATOM     23  C   UNL     1      60.126  62.887  71.361  0.00  0.00    +0.000 C 
ATOM     24  C   UNL     1      61.687  63.377  71.154  0.00  0.00    +0.000 A 
ATOM     25  O   UNL     1      61.455  62.624  70.909  0.00  0.00    +0.000 OA
ATOM     26  C   UNL     1      60.673  62.380  71.012  0.00  0.00    +0.000 C 
ATOM     27  C   UNL     1      62.469  63.622  71.051  0.00  0.00    +0.000 A 
ATOM     28  C   UNL     1      62.701  64.374  71.296  0.00  0.00    +0.000 A 
ENDROOT
TORSDOF 0
ENDMDL
MODEL 6
REMARK VINA RESULT:   -11.799      3.076      3.655
REMARK INTER + INTRA:         -11.799
REMARK INTER:                 -11.799
REMARK INTRA:                   0.000
REMARK UNBOUND:                 0.000
ROOT
REMARK  Name = tofisopam
REMARK                            x       y       z     vdW  Elec       q    Type
REMARK                         _______ _______ _______ _____ _____    ______ ____
ATOM      1  C   UNL     1      65.744  66.625  70.717  0.00  0.00    +0.000 C 
ATOM      2  C   UNL     1      65.015  66.240  70.678  0.00  0.00    +0.000 C 
ATOM      3  C   UNL     1      64.388  66.495  71.150  0.00  0.00    +0.000 C 
ATOM      4  C   UNL     1      63.684  66.073  71.068  0.00  0.00    +0.000 A 
ATOM      5  C   UNL     1      63.759  65.465  70.515  0.00  0.00    +0.000 A 
ATOM      6  C   UNL     1      63.116  64.976  70.350  0.00  0.00    +0.000 A 
ATOM      7  O   UNL     1      63.191  64.369  69.797  0.00  0.00    +0.000 OA
ATOM      8  C   UNL     1      62.548  63.878  69.632  0.00  0.00    +0.000 C 
ATOM      9  C   UNL     1      62.398  65.093  70.739  0.00  0.00    +0.000 A 
ATOM     10  O   UNL     1      61.755  64.603  70.575  0.00  0.00    +0.000 OA
ATOM     11  C   UNL     1      61.038  64.720  70.964  0.00  0.00    +0.000 C 
ATOM     12  C   UNL     1      62.322  65.700  71.293  0.00  0.00    +0.000 A 
ATOM     13  C   UNL     1      62.966  66.190  71.457  0.00  0.00    +0.000 A 
ATOM     14  C   UNL     1      62.775  66.758  72.023  0.00  0.00    +0.000 C 
ATOM     15  N   UNL     1      63.254  67.350  72.341  0.00  0.00    +0.000 NA
ATOM     16  N   UNL     1      64.043  67.519  72.170  0.00  0.00    +0.000 NA
ATOM     17  C   UNL     1      64.548  67.139  71.640  0.00  0.00    +0.000 C 
ATOM     18  C   UNL     1      65.314  67.443  71.595  0.00  0.00    +0.000 C 
ATOM     19  C   UNL     1      62.001  66.731  72.310  0.00  0.00    +0.000 A 
ATOM     20  C   UNL     1      61.477  66.161  72.029  0.00  0.00    +0.000 A 
ATOM     21  C   UNL     1      60.704  66.134  72.316  0.00  0.00    +0.000 A 
ATOM     22  O   UNL     1      60.179  65.563  72.034  0.00  0.00    +0.000 OA
ATOM     23  C   UNL     1      59.406  65.537  72.322  0.00  0.00    +0.000 C 
ATOM     24  C   UNL     1      60.456  66.678  72.884  0.00  0.00    +0.000 A 
ATOM     25  O   UNL     1      59.682  66.651  73.172  0.00  0.00    +0.000 OA
ATOM     26  C   UNL     1      59.157  66.080  72.890  0.00  0.00    +0.000 C 
ATOM     27  C   UNL     1      60.981  67.249  73.166  0.00  0.00    +0.000 A 
ATOM     28  C   UNL     1      61.753  67.276  72.879  0.00  0.00    +0.000 A 
ENDROOT
TORSDOF 0
ENDMDL
MODEL 7
REMARK VINA RESULT:   -11.799      2.456      3.845
REMARK INTER + INTRA:         -11.799
REMARK INTER:                 -11.799
REMARK INTRA:                   0.000
REMARK UNBOUND:                 0.000
ROOT
REMARK  Name = tofisopam
REMARK                            x       y       z     vdW  Elec       q    Type
REMARK                         _______ _______ _______ _____ _____    ______ ____
ATOM      1  C   UNL     1      57.568  65.635  73.034  0.00  0.00    +0.000 C 
ATOM      2  C   UNL     1      58.303  65.343  72.799  0.00  0.00    +0.000 C 
ATOM      3  C   UNL     1      58.959  65.844  72.781  0.00  0.00    +0.000 C 
ATOM      4  C   UNL     1      59.667  65.498  72.538  0.00  0.00    +0.000 A 
ATOM      5  C   UNL     1      59.566  64.698  72.360  0.00  0.00    +0.000 A 
ATOM      6  C   UNL     1      60.209  64.248  72.106  0.00  0.00    +0.000 A 
ATOM      7  O   UNL     1      60.108  63.449  71.928  0.00  0.00    +0.000 OA
ATOM      8  C   UNL     1      60.750  62.998  71.673  0.00  0.00    +0.000 C 
ATOM      9  C   UNL     1      60.952  64.597  72.030  0.00  0.00    +0.000 A 
ATOM     10  O   UNL     1      61.595  64.147  71.776  0.00  0.00    +0.000 OA
ATOM     11  C   UNL     1      62.338  64.495  71.700  0.00  0.00    +0.000 C 
ATOM     12  C   UNL     1      61.054  65.395  72.208  0.00  0.00    +0.000 A 
ATOM     13  C   UNL     1      60.411  65.846  72.462  0.00  0.00    +0.000 A 
ATOM     14  C   UNL     1      60.630  66.627  72.610  0.00  0.00    +0.000 C 
ATOM     15  N   UNL     1      60.160  67.253  72.870  0.00  0.00    +0.000 NA
ATOM     16  N   UNL     1      59.354  67.252  73.047  0.00  0.00    +0.000 NA
ATOM     17  C   UNL     1      58.819  66.625  73.007  0.00  0.00    +0.000 C 
ATOM     18  C   UNL     1      58.043  66.803  73.222  0.00  0.00    +0.000 C 
ATOM     19  C   UNL     1      61.425  66.807  72.480  0.00  0.00    +0.000 A 
ATOM     20  C   UNL     1      61.943  66.220  72.220  0.00  0.00    +0.000 A 
ATOM     21  C   UNL     1      62.737  66.400  72.090  0.00  0.00    +0.000 A 
ATOM     22  O   UNL     1      63.256  65.813  71.829  0.00  0.00    +0.000 OA
ATOM     23  C   UNL     1      64.051  65.993  71.700  0.00  0.00    +0.000 C 
ATOM     24  C   UNL     1      63.014  67.165  72.221  0.00  0.00    +0.000 A 
ATOM     25  O   UNL     1      63.810  67.345  72.092  0.00  0.00    +0.000 OA
ATOM     26  C   UNL     1      64.328  66.758  71.831  0.00  0.00    +0.000 C 
ATOM     27  C   UNL     1      62.496  67.753  72.483  0.00  0.00    +0.000 A 
ATOM     28  C   UNL     1      61.702  67.573  72.612  0.00  0.00    +0.000 A 
ENDROOT
TORSDOF 0
ENDMDL
MODEL 8
REMARK VINA RESULT:   -11.668      1.677      4.011
REMARK INTER + INTRA:         -11.668
REMARK INTER:                 -11.668
REMARK INTRA:                   0.000
REMARK UNBOUND:                 0.000
ROOT
REMARK  Name = tofisopam
REMARK                            x       y       z     vdW  Elec       q    Type
REMARK                         _______ _______ _______ _____ _____    ______ ____
ATOM      1  C   UNL     1      60.197  66.634  73.222  0.00  0.00    +0.000 C 
ATOM      2  C   UNL     1      60.398  65.887  72.934  0.00  0.00    +0.000 C 
ATOM      3  C   UNL     1      60.266  65.702  72.141  0.00  0.00    +0.000 C 
ATOM      4  C   UNL     1      60.485  64.941  71.910  0.00  0.00    +0.000 A 
ATOM      5  C   UNL     1      60.801  64.513  72.541  0.00  0.00    +0.000 A 
ATOM      6  C   UNL     1      61.055  63.737  72.427  0.00  0.00    +0.000 A 
ATOM      7  O   UNL     1      61.370  63.310  73.058  0.00  0.00    +0.000 OA
ATOM      8  C   UNL     1      61.625  62.533  72.945  0.00  0.00    +0.000 C 
ATOM      9  C   UNL     1      60.995  63.388  71.682  0.00  0.00    +0.000 A 
ATOM     10  O   UNL     1      61.250  62.612  71.568  0.00  0.00    +0.000 OA
ATOM     11  C   UNL     1      61.190  62.264  70.823  0.00  0.00    +0.000 C 
ATOM     12  C   UNL     1      60.681  63.815  71.050  0.00  0.00    +0.000 A 
ATOM     13  C   UNL     1      60.425  64.592  71.165  0.00  0.00    +0.000 A 
ATOM     14  C   UNL     1      60.131  64.918  70.467  0.00  0.00    +0.000 C 
ATOM     15  N   UNL     1      59.823  65.673  70.341  0.00  0.00    +0.000 NA
ATOM     16  N   UNL     1      59.735  66.289  70.883  0.00  0.00    +0.000 NA
ATOM     17  C   UNL     1      59.932  66.302  71.684  0.00  0.00    +0.000 C 
ATOM     18  C   UNL     1      59.773  67.008  72.080  0.00  0.00    +0.000 C 
ATOM     19  C   UNL     1      60.145  64.423  69.806  0.00  0.00    +0.000 A 
ATOM     20  C   UNL     1      60.442  63.656  69.872  0.00  0.00    +0.000 A 
ATOM     21  C   UNL     1      60.457  63.162  69.212  0.00  0.00    +0.000 A 
ATOM     22  O   UNL     1      60.754  62.395  69.278  0.00  0.00    +0.000 OA
ATOM     23  C   UNL     1      60.768  61.900  68.617  0.00  0.00    +0.000 C 
ATOM     24  C   UNL     1      60.175  63.434  68.487  0.00  0.00    +0.000 A 
ATOM     25  O   UNL     1      60.189  62.940  67.826  0.00  0.00    +0.000 OA
ATOM     26  C   UNL     1      60.486  62.172  67.892  0.00  0.00    +0.000 C 
ATOM     27  C   UNL     1      59.878  64.201  68.420  0.00  0.00    +0.000 A 
ATOM     28  C   UNL     1      59.863  64.695  69.080  0.00  0.00    +0.000 A 
ENDROOT
TORSDOF 0
ENDMDL
MODEL 9
REMARK VINA RESULT:   -11.462      1.540      3.771
REMARK INTER + INTRA:         -11.462
REMARK INTER:                 -11.462
REMARK INTRA:                   0.000
REMARK UNBOUND:                 0.000
ROOT
REMARK  Name = tofisopam
REMARK                            x       y       z     vdW  Elec       q    Type
REMARK                         _______ _______ _______ _____ _____    ______ ____
ATOM      1  C   UNL     1      62.138  68.122  72.472  0.00  0.00    +0.000 C 
ATOM      2  C   UNL     1      61.773  67.602  71.945  0.00  0.00    +0.000 C 
ATOM      3  C   UNL     1      61.793  66.789  72.087  0.00  0.00    +0.000 C 
ATOM      4  C   UNL     1      61.413  66.319  71.526  0.00  0.00    +0.000 A 
ATOM      5  C   UNL     1      61.082  66.775  70.923  0.00  0.00    +0.000 A 
ATOM      6  C   UNL     1      60.676  66.411  70.306  0.00  0.00    +0.000 A 
ATOM      7  O   UNL     1      60.346  66.867  69.703  0.00  0.00    +0.000 OA
ATOM      8  C   UNL     1      59.939  66.503  69.085  0.00  0.00    +0.000 C 
ATOM      9  C   UNL     1      60.599  65.590  70.290  0.00  0.00    +0.000 A 
ATOM     10  O   UNL     1      60.192  65.224  69.672  0.00  0.00    +0.000 OA
ATOM     11  C   UNL     1      60.115  64.404  69.657  0.00  0.00    +0.000 C 
ATOM     12  C   UNL     1      60.929  65.133  70.892  0.00  0.00    +0.000 A 
ATOM     13  C   UNL     1      61.336  65.498  71.511  0.00  0.00    +0.000 A 
ATOM     14  C   UNL     1      61.621  64.944  72.052  0.00  0.00    +0.000 C 
ATOM     15  N   UNL     1      62.053  65.075  72.742  0.00  0.00    +0.000 NA
ATOM     16  N   UNL     1      62.307  65.793  73.062  0.00  0.00    +0.000 NA
ATOM     17  C   UNL     1      62.191  66.555  72.770  0.00  0.00    +0.000 C 
ATOM     18  C   UNL     1      62.517  67.164  73.222  0.00  0.00    +0.000 C 
ATOM     19  C   UNL     1      61.451  64.155  71.880  0.00  0.00    +0.000 A 
ATOM     20  C   UNL     1      61.022  63.964  71.202  0.00  0.00    +0.000 A 
ATOM     21  C   UNL     1      60.853  63.175  71.031  0.00  0.00    +0.000 A 
ATOM     22  O   UNL     1      60.423  62.984  70.352  0.00  0.00    +0.000 OA
ATOM     23  C   UNL     1      60.254  62.195  70.181  0.00  0.00    +0.000 C 
ATOM     24  C   UNL     1      61.112  62.578  71.536  0.00  0.00    +0.000 A 
ATOM     25  O   UNL     1      60.942  61.788  71.365  0.00  0.00    +0.000 OA
ATOM     26  C   UNL     1      60.513  61.597  70.686  0.00  0.00    +0.000 C 
ATOM     27  C   UNL     1      61.541  62.769  72.215  0.00  0.00    +0.000 A 
ATOM     28  C   UNL     1      61.711  63.558  72.386  0.00  0.00    +0.000 A 
ENDROOT
TORSDOF 0
ENDMDL
