MODEL 1
REMARK VINA RESULT:    -8.369      0.000      0.000
REMARK INTER + INTRA:          -8.369
REMARK INTER:                  -8.369
REMARK INTRA:                   0.000
REMARK UNBOUND:                 0.000
ROOT
REMARK  Name = tolonidine
REMARK                            x       y       z     vdW  Elec       q    Type
REMARK                         _______ _______ _______ _____ _____    ______ ____
ATOM      1  C   UNL     1      62.643  61.654  63.477  0.00  0.00    +0.000 C 
ATOM      2  C   UNL     1      62.160  61.737  64.141  0.00  0.00    +0.000 A 
ATOM      3  C   UNL     1      61.423  61.365  64.164  0.00  0.00    +0.000 A 
ATOM      4  C   UNL     1      60.941  61.449  64.828  0.00  0.00    +0.000 A 
ATOM      5 CL   UNL     1      60.204  61.077  64.851  0.00  0.00    +0.000 Cl
ATOM      6  C   UNL     1      61.194  61.904  65.468  0.00  0.00    +0.000 A 
ATOM      7  N   UNL     1      60.710  61.986  66.131  0.00  0.00    +0.000 NA
ATOM      8  C   UNL     1      60.963  62.441  66.771  0.00  0.00    +0.000 C 
ATOM      9  N   UNL     1      60.543  62.574  67.468  0.00  0.00    +0.000 NA
ATOM     10  C   UNL     1      61.001  63.058  67.955  0.00  0.00    +0.000 C 
ATOM     11  C   UNL     1      61.705  63.225  67.558  0.00  0.00    +0.000 C 
ATOM     12  N   UNL     1      61.682  62.843  66.826  0.00  0.00    +0.000 NA
ATOM     13  C   UNL     1      61.929  62.275  65.444  0.00  0.00    +0.000 A 
ATOM     14  C   UNL     1      62.413  62.192  64.781  0.00  0.00    +0.000 A 
ENDROOT
TORSDOF 0
ENDMDL
MODEL 2
REMARK VINA RESULT:    -7.839      1.115      3.103
REMARK INTER + INTRA:          -7.839
REMARK INTER:                  -7.839
REMARK INTRA:                   0.000
REMARK UNBOUND:                 0.000
ROOT
REMARK  Name = tolonidine
REMARK                            x       y       z     vdW  Elec       q    Type
REMARK                         _______ _______ _______ _____ _____    ______ ____
ATOM      1  C   UNL     1      60.502  62.593  68.820  0.00  0.00    +0.000 C 
ATOM      2  C   UNL     1      60.509  62.435  68.011  0.00  0.00    +0.000 A 
ATOM      3  C   UNL     1      59.797  62.360  67.600  0.00  0.00    +0.000 A 
ATOM      4  C   UNL     1      59.803  62.201  66.790  0.00  0.00    +0.000 A 
ATOM      5 CL   UNL     1      59.091  62.127  66.379  0.00  0.00    +0.000 Cl
ATOM      6  C   UNL     1      60.521  62.117  66.392  0.00  0.00    +0.000 A 
ATOM      7  N   UNL     1      60.526  61.958  65.582  0.00  0.00    +0.000 NA
ATOM      8  C   UNL     1      61.243  61.874  65.183  0.00  0.00    +0.000 C 
ATOM      9  N   UNL     1      61.336  61.716  64.379  0.00  0.00    +0.000 NA
ATOM     10  C   UNL     1      62.144  61.677  64.218  0.00  0.00    +0.000 C 
ATOM     11  C   UNL     1      62.552  61.812  64.923  0.00  0.00    +0.000 C 
ATOM     12  N   UNL     1      61.995  61.934  65.520  0.00  0.00    +0.000 NA
ATOM     13  C   UNL     1      61.232  62.192  66.803  0.00  0.00    +0.000 A 
ATOM     14  C   UNL     1      61.226  62.350  67.612  0.00  0.00    +0.000 A 
ENDROOT
TORSDOF 0
ENDMDL
MODEL 3
REMARK VINA RESULT:    -7.450      5.963      7.547
REMARK INTER + INTRA:          -7.450
REMARK INTER:                  -7.450
REMARK INTRA:                   0.000
REMARK UNBOUND:                 0.000
ROOT
REMARK  Name = tolonidine
REMARK                            x       y       z     vdW  Elec       q    Type
REMARK                         _______ _______ _______ _____ _____    ______ ____
ATOM      1  C   UNL     1      66.453  67.996  69.823  0.00  0.00    +0.000 C 
ATOM      2  C   UNL     1      65.985  67.401  70.151  0.00  0.00    +0.000 A 
ATOM      3  C   UNL     1      66.015  67.253  70.962  0.00  0.00    +0.000 A 
ATOM      4  C   UNL     1      65.547  66.658  71.290  0.00  0.00    +0.000 A 
ATOM      5 CL   UNL     1      65.577  66.510  72.102  0.00  0.00    +0.000 Cl
ATOM      6  C   UNL     1      65.049  66.211  70.807  0.00  0.00    +0.000 A 
ATOM      7  N   UNL     1      64.582  65.616  71.136  0.00  0.00    +0.000 NA
ATOM      8  C   UNL     1      64.084  65.170  70.653  0.00  0.00    +0.000 C 
ATOM      9  N   UNL     1      63.587  64.560  70.901  0.00  0.00    +0.000 NA
ATOM     10  C   UNL     1      63.191  64.267  70.239  0.00  0.00    +0.000 C 
ATOM     11  C   UNL     1      63.444  64.696  69.581  0.00  0.00    +0.000 C 
ATOM     12  N   UNL     1      63.996  65.254  69.837  0.00  0.00    +0.000 NA
ATOM     13  C   UNL     1      65.020  66.359  69.997  0.00  0.00    +0.000 A 
ATOM     14  C   UNL     1      65.488  66.954  69.668  0.00  0.00    +0.000 A 
ENDROOT
TORSDOF 0
ENDMDL
MODEL 4
REMARK VINA RESULT:    -7.105      5.623      6.361
REMARK INTER + INTRA:          -7.105
REMARK INTER:                  -7.105
REMARK INTRA:                   0.000
REMARK UNBOUND:                 0.000
ROOT
REMARK  Name = tolonidine
REMARK                            x       y       z     vdW  Elec       q    Type
REMARK                         _______ _______ _______ _____ _____    ______ ____
ATOM      1  C   UNL     1      62.160  60.886  72.036  0.00  0.00    +0.000 C 
ATOM      2  C   UNL     1      61.636  61.497  71.853  0.00  0.00    +0.000 A 
ATOM      3  C   UNL     1      61.161  61.444  71.179  0.00  0.00    +0.000 A 
ATOM      4  C   UNL     1      60.637  62.054  70.996  0.00  0.00    +0.000 A 
ATOM      5 CL   UNL     1      60.162  62.001  70.323  0.00  0.00    +0.000 Cl
ATOM      6  C   UNL     1      60.587  62.716  71.485  0.00  0.00    +0.000 A 
ATOM      7  N   UNL     1      60.062  63.326  71.301  0.00  0.00    +0.000 NA
ATOM      8  C   UNL     1      60.012  63.988  71.790  0.00  0.00    +0.000 C 
ATOM      9  N   UNL     1      59.517  64.638  71.678  0.00  0.00    +0.000 NA
ATOM     10  C   UNL     1      59.647  65.169  72.296  0.00  0.00    +0.000 C 
ATOM     11  C   UNL     1      60.224  64.847  72.791  0.00  0.00    +0.000 C 
ATOM     12  N   UNL     1      60.450  64.117  72.478  0.00  0.00    +0.000 NA
ATOM     13  C   UNL     1      61.061  62.769  72.158  0.00  0.00    +0.000 A 
ATOM     14  C   UNL     1      61.586  62.159  72.342  0.00  0.00    +0.000 A 
ENDROOT
TORSDOF 0
ENDMDL
MODEL 5
REMARK VINA RESULT:    -7.098      6.960      7.675
REMARK INTER + INTRA:          -7.098
REMARK INTER:                  -7.098
REMARK INTRA:                   0.000
REMARK UNBOUND:                 0.000
ROOT
REMARK  Name = tolonidine
REMARK                            x       y       z     vdW  Elec       q    Type
REMARK                         _______ _______ _______ _____ _____    ______ ____
ATOM      1  C   UNL     1      66.419  67.635  70.223  0.00  0.00    +0.000 C 
ATOM      2  C   UNL     1      65.710  67.249  70.395  0.00  0.00    +0.000 A 
ATOM      3  C   UNL     1      65.382  66.728  69.846  0.00  0.00    +0.000 A 
ATOM      4  C   UNL     1      64.673  66.342  70.017  0.00  0.00    +0.000 A 
ATOM      5 CL   UNL     1      64.345  65.820  69.468  0.00  0.00    +0.000 Cl
ATOM      6  C   UNL     1      64.293  66.477  70.736  0.00  0.00    +0.000 A 
ATOM      7  N   UNL     1      63.584  66.091  70.907  0.00  0.00    +0.000 NA
ATOM      8  C   UNL     1      63.203  66.226  71.626  0.00  0.00    +0.000 C 
ATOM      9  N   UNL     1      62.496  65.882  71.873  0.00  0.00    +0.000 NA
ATOM     10  C   UNL     1      62.319  66.172  72.625  0.00  0.00    +0.000 C 
ATOM     11  C   UNL     1      62.918  66.696  72.843  0.00  0.00    +0.000 C 
ATOM     12  N   UNL     1      63.465  66.730  72.226  0.00  0.00    +0.000 NA
ATOM     13  C   UNL     1      64.621  66.998  71.284  0.00  0.00    +0.000 A 
ATOM     14  C   UNL     1      65.330  67.385  71.114  0.00  0.00    +0.000 A 
ENDROOT
TORSDOF 0
ENDMDL
MODEL 6
REMARK VINA RESULT:    -7.080      3.655      5.762
REMARK INTER + INTRA:          -7.080
REMARK INTER:                  -7.080
REMARK INTRA:                   0.000
REMARK UNBOUND:                 0.000
ROOT
REMARK  Name = tolonidine
REMARK                            x       y       z     vdW  Elec       q    Type
REMARK                         _______ _______ _______ _____ _____    ______ ____
ATOM      1  C   UNL     1      61.625  62.478  72.853  0.00  0.00    +0.000 C 
ATOM      2  C   UNL     1      61.331  62.730  72.125  0.00  0.00    +0.000 A 
ATOM      3  C   UNL     1      61.084  63.512  72.029  0.00  0.00    +0.000 A 
ATOM      4  C   UNL     1      60.790  63.765  71.301  0.00  0.00    +0.000 A 
ATOM      5 CL   UNL     1      60.542  64.546  71.205  0.00  0.00    +0.000 Cl
ATOM      6  C   UNL     1      60.744  63.236  70.668  0.00  0.00    +0.000 A 
ATOM      7  N   UNL     1      60.450  63.490  69.940  0.00  0.00    +0.000 NA
ATOM      8  C   UNL     1      60.403  62.962  69.308  0.00  0.00    +0.000 C 
ATOM      9  N   UNL     1      60.124  63.134  68.552  0.00  0.00    +0.000 NA
ATOM     10  C   UNL     1      60.176  62.447  68.097  0.00  0.00    +0.000 C 
ATOM     11  C   UNL     1      60.489  61.850  68.573  0.00  0.00    +0.000 C 
ATOM     12  N   UNL     1      60.629  62.168  69.322  0.00  0.00    +0.000 NA
ATOM     13  C   UNL     1      60.991  62.456  70.765  0.00  0.00    +0.000 A 
ATOM     14  C   UNL     1      61.285  62.202  71.493  0.00  0.00    +0.000 A 
ENDROOT
TORSDOF 0
ENDMDL
MODEL 7
REMARK VINA RESULT:    -7.004      5.046      5.917
REMARK INTER + INTRA:          -7.004
REMARK INTER:                  -7.004
REMARK INTRA:                   0.000
REMARK UNBOUND:                 0.000
ROOT
REMARK  Name = tolonidine
REMARK                            x       y       z     vdW  Elec       q    Type
REMARK                         _______ _______ _______ _____ _____    ______ ____
ATOM      1  C   UNL     1      61.630  62.713  72.929  0.00  0.00    +0.000 C 
ATOM      2  C   UNL     1      61.296  62.915  72.203  0.00  0.00    +0.000 A 
ATOM      3  C   UNL     1      61.100  62.324  71.660  0.00  0.00    +0.000 A 
ATOM      4  C   UNL     1      60.767  62.527  70.934  0.00  0.00    +0.000 A 
ATOM      5 CL   UNL     1      60.571  61.936  70.391  0.00  0.00    +0.000 Cl
ATOM      6  C   UNL     1      60.628  63.319  70.749  0.00  0.00    +0.000 A 
ATOM      7  N   UNL     1      60.294  63.520  70.022  0.00  0.00    +0.000 NA
ATOM      8  C   UNL     1      60.155  64.312  69.837  0.00  0.00    +0.000 C 
ATOM      9  N   UNL     1      59.827  64.596  69.136  0.00  0.00    +0.000 NA
ATOM     10  C   UNL     1      59.789  65.419  69.187  0.00  0.00    +0.000 C 
ATOM     11  C   UNL     1      60.095  65.643  69.919  0.00  0.00    +0.000 C 
ATOM     12  N   UNL     1      60.321  64.959  70.322  0.00  0.00    +0.000 NA
ATOM     13  C   UNL     1      60.823  63.908  71.291  0.00  0.00    +0.000 A 
ATOM     14  C   UNL     1      61.157  63.707  72.018  0.00  0.00    +0.000 A 
ENDROOT
TORSDOF 0
ENDMDL
MODEL 8
REMARK VINA RESULT:    -6.944      7.230      7.865
REMARK INTER + INTRA:          -6.944
REMARK INTER:                  -6.944
REMARK INTRA:                   0.000
REMARK UNBOUND:                 0.000
ROOT
REMARK  Name = tolonidine
REMARK                            x       y       z     vdW  Elec       q    Type
REMARK                         _______ _______ _______ _____ _____    ______ ____
ATOM      1  C   UNL     1      61.347  62.744  72.390  0.00  0.00    +0.000 C 
ATOM      2  C   UNL     1      61.208  63.553  72.473  0.00  0.00    +0.000 A 
ATOM      3  C   UNL     1      60.433  63.839  72.479  0.00  0.00    +0.000 A 
ATOM      4  C   UNL     1      60.294  64.648  72.562  0.00  0.00    +0.000 A 
ATOM      5 CL   UNL     1      59.520  64.935  72.568  0.00  0.00    +0.000 Cl
ATOM      6  C   UNL     1      60.928  65.170  72.639  0.00  0.00    +0.000 A 
ATOM      7  N   UNL     1      60.788  65.979  72.723  0.00  0.00    +0.000 NA
ATOM      8  C   UNL     1      61.421  66.502  72.800  0.00  0.00    +0.000 C 
ATOM      9  N   UNL     1      61.368  67.320  72.887  0.00  0.00    +0.000 NA
ATOM     10  C   UNL     1      62.134  67.622  72.945  0.00  0.00    +0.000 C 
ATOM     11  C   UNL     1      62.661  66.989  72.893  0.00  0.00    +0.000 C 
ATOM     12  N   UNL     1      62.221  66.297  72.804  0.00  0.00    +0.000 NA
ATOM     13  C   UNL     1      61.701  64.884  72.634  0.00  0.00    +0.000 A 
ATOM     14  C   UNL     1      61.842  64.075  72.550  0.00  0.00    +0.000 A 
ENDROOT
TORSDOF 0
ENDMDL
MODEL 9
REMARK VINA RESULT:    -6.820      3.956      5.154
REMARK INTER + INTRA:          -6.820
REMARK INTER:                  -6.820
REMARK INTRA:                   0.000
REMARK UNBOUND:                 0.000
ROOT
REMARK  Name = tolonidine
REMARK                            x       y       z     vdW  Elec       q    Type
REMARK                         _______ _______ _______ _____ _____    ______ ____
ATOM      1  C   UNL     1      60.496  62.008  68.199  0.00  0.00    +0.000 C 
ATOM      2  C   UNL     1      60.456  62.246  68.988  0.00  0.00    +0.000 A 
ATOM      3  C   UNL     1      60.441  61.679  69.588  0.00  0.00    +0.000 A 
ATOM      4  C   UNL     1      60.402  61.916  70.377  0.00  0.00    +0.000 A 
ATOM      5 CL   UNL     1      60.387  61.350  70.978  0.00  0.00    +0.000 Cl
ATOM      6  C   UNL     1      60.377  62.719  70.567  0.00  0.00    +0.000 A 
ATOM      7  N   UNL     1      60.338  62.955  71.356  0.00  0.00    +0.000 NA
ATOM      8  C   UNL     1      60.313  63.758  71.546  0.00  0.00    +0.000 C 
ATOM      9  N   UNL     1      60.273  64.076  72.305  0.00  0.00    +0.000 NA
ATOM     10  C   UNL     1      60.259  64.898  72.238  0.00  0.00    +0.000 C 
ATOM     11  C   UNL     1      60.290  65.088  71.435  0.00  0.00    +0.000 C 
ATOM     12  N   UNL     1      60.324  64.383  71.007  0.00  0.00    +0.000 NA
ATOM     13  C   UNL     1      60.392  63.284  69.967  0.00  0.00    +0.000 A 
ATOM     14  C   UNL     1      60.431  63.048  69.177  0.00  0.00    +0.000 A 
ENDROOT
TORSDOF 0
ENDMDL
