MODEL 1
REMARK VINA RESULT:   -10.414      0.000      0.000
REMARK INTER + INTRA:         -10.414
REMARK INTER:                 -10.414
REMARK INTRA:                   0.000
REMARK UNBOUND:                 0.000
ROOT
REMARK  Name = tolperisone
REMARK                            x       y       z     vdW  Elec       q    Type
REMARK                         _______ _______ _______ _____ _____    ______ ____
ATOM      1  C   UNL     1      61.155  61.851  67.471  0.00  0.00    +0.000 C 
ATOM      2  C   UNL     1      61.282  62.664  67.408  0.00  0.00    +0.000 C 
ATOM      3  C   UNL     1      61.530  62.989  66.692  0.00  0.00    +0.000 C 
ATOM      4  N   UNL     1      61.652  62.501  66.038  0.00  0.00    +0.000 NA
ATOM      5  C   UNL     1      61.526  61.688  66.100  0.00  0.00    +0.000 C 
ATOM      6  C   UNL     1      61.648  61.201  65.446  0.00  0.00    +0.000 C 
ATOM      7  C   UNL     1      61.896  61.526  64.730  0.00  0.00    +0.000 C 
ATOM      8  C   UNL     1      62.023  62.339  64.668  0.00  0.00    +0.000 C 
ATOM      9  C   UNL     1      61.901  62.827  65.321  0.00  0.00    +0.000 C 
ATOM     10  C   UNL     1      61.160  63.152  68.063  0.00  0.00    +0.000 C 
ATOM     11  O   UNL     1      61.286  63.964  68.001  0.00  0.00    +0.000 OA
ATOM     12  C   UNL     1      60.911  62.826  68.779  0.00  0.00    +0.000 A 
ATOM     13  C   UNL     1      60.789  63.314  69.433  0.00  0.00    +0.000 A 
ATOM     14  C   UNL     1      60.540  62.989  70.150  0.00  0.00    +0.000 A 
ATOM     15  C   UNL     1      60.413  62.176  70.212  0.00  0.00    +0.000 A 
ATOM     16  C   UNL     1      60.164  61.851  70.928  0.00  0.00    +0.000 C 
ATOM     17  C   UNL     1      60.535  61.688  69.557  0.00  0.00    +0.000 A 
ATOM     18  C   UNL     1      60.784  62.014  68.841  0.00  0.00    +0.000 A 
ENDROOT
TORSDOF 0
ENDMDL
MODEL 2
REMARK VINA RESULT:   -10.386      1.368      4.318
REMARK INTER + INTRA:         -10.386
REMARK INTER:                 -10.386
REMARK INTRA:                   0.000
REMARK UNBOUND:                 0.000
ROOT
REMARK  Name = tolperisone
REMARK                            x       y       z     vdW  Elec       q    Type
REMARK                         _______ _______ _______ _____ _____    ______ ____
ATOM      1  C   UNL     1      61.663  62.759  66.729  0.00  0.00    +0.000 C 
ATOM      2  C   UNL     1      60.906  62.429  66.719  0.00  0.00    +0.000 C 
ATOM      3  C   UNL     1      60.408  62.520  67.369  0.00  0.00    +0.000 C 
ATOM      4  N   UNL     1      60.665  62.942  68.030  0.00  0.00    +0.000 NA
ATOM      5  C   UNL     1      61.421  63.272  68.041  0.00  0.00    +0.000 C 
ATOM      6  C   UNL     1      61.678  63.692  68.702  0.00  0.00    +0.000 C 
ATOM      7  C   UNL     1      61.179  63.784  69.352  0.00  0.00    +0.000 C 
ATOM      8  C   UNL     1      60.423  63.454  69.342  0.00  0.00    +0.000 C 
ATOM      9  C   UNL     1      60.166  63.033  68.682  0.00  0.00    +0.000 C 
ATOM     10  C   UNL     1      60.649  62.007  66.058  0.00  0.00    +0.000 C 
ATOM     11  O   UNL     1      59.893  61.678  66.047  0.00  0.00    +0.000 OA
ATOM     12  C   UNL     1      61.148  61.916  65.407  0.00  0.00    +0.000 A 
ATOM     13  C   UNL     1      60.891  61.495  64.746  0.00  0.00    +0.000 A 
ATOM     14  C   UNL     1      61.389  61.403  64.095  0.00  0.00    +0.000 A 
ATOM     15  C   UNL     1      62.146  61.733  64.106  0.00  0.00    +0.000 A 
ATOM     16  C   UNL     1      62.644  61.641  63.455  0.00  0.00    +0.000 C 
ATOM     17  C   UNL     1      62.403  62.154  64.767  0.00  0.00    +0.000 A 
ATOM     18  C   UNL     1      61.904  62.245  65.417  0.00  0.00    +0.000 A 
ENDROOT
TORSDOF 0
ENDMDL
MODEL 3
REMARK VINA RESULT:    -9.870      1.042      4.061
REMARK INTER + INTRA:          -9.870
REMARK INTER:                  -9.870
REMARK INTRA:                   0.000
REMARK UNBOUND:                 0.000
ROOT
REMARK  Name = tolperisone
REMARK                            x       y       z     vdW  Elec       q    Type
REMARK                         _______ _______ _______ _____ _____    ______ ____
ATOM      1  C   UNL     1      60.954  61.960  68.467  0.00  0.00    +0.000 C 
ATOM      2  C   UNL     1      60.888  62.780  68.404  0.00  0.00    +0.000 C 
ATOM      3  C   UNL     1      60.680  63.230  69.063  0.00  0.00    +0.000 C 
ATOM      4  N   UNL     1      60.537  62.860  69.786  0.00  0.00    +0.000 NA
ATOM      5  C   UNL     1      60.602  62.040  69.851  0.00  0.00    +0.000 C 
ATOM      6  C   UNL     1      60.459  61.671  70.573  0.00  0.00    +0.000 C 
ATOM      7  C   UNL     1      60.251  62.120  71.233  0.00  0.00    +0.000 C 
ATOM      8  C   UNL     1      60.186  62.941  71.169  0.00  0.00    +0.000 C 
ATOM      9  C   UNL     1      60.329  63.310  70.446  0.00  0.00    +0.000 C 
ATOM     10  C   UNL     1      61.031  63.151  67.680  0.00  0.00    +0.000 C 
ATOM     11  O   UNL     1      60.966  63.970  67.616  0.00  0.00    +0.000 OA
ATOM     12  C   UNL     1      61.240  62.700  67.021  0.00  0.00    +0.000 A 
ATOM     13  C   UNL     1      61.383  63.070  66.297  0.00  0.00    +0.000 A 
ATOM     14  C   UNL     1      61.591  62.621  65.638  0.00  0.00    +0.000 A 
ATOM     15  C   UNL     1      61.656  61.800  65.702  0.00  0.00    +0.000 A 
ATOM     16  C   UNL     1      61.864  61.351  65.042  0.00  0.00    +0.000 C 
ATOM     17  C   UNL     1      61.513  61.430  66.425  0.00  0.00    +0.000 A 
ATOM     18  C   UNL     1      61.305  61.881  67.084  0.00  0.00    +0.000 A 
ENDROOT
TORSDOF 0
ENDMDL
MODEL 4
REMARK VINA RESULT:    -9.661      3.950      5.734
REMARK INTER + INTRA:          -9.661
REMARK INTER:                  -9.661
REMARK INTRA:                   0.000
REMARK UNBOUND:                 0.000
ROOT
REMARK  Name = tolperisone
REMARK                            x       y       z     vdW  Elec       q    Type
REMARK                         _______ _______ _______ _____ _____    ______ ____
ATOM      1  C   UNL     1      63.073  64.884  71.386  0.00  0.00    +0.000 C 
ATOM      2  C   UNL     1      63.024  64.477  70.669  0.00  0.00    +0.000 C 
ATOM      3  C   UNL     1      62.492  63.853  70.585  0.00  0.00    +0.000 C 
ATOM      4  N   UNL     1      62.009  63.634  71.217  0.00  0.00    +0.000 NA
ATOM      5  C   UNL     1      62.057  64.040  71.934  0.00  0.00    +0.000 C 
ATOM      6  C   UNL     1      61.575  63.822  72.565  0.00  0.00    +0.000 C 
ATOM      7  C   UNL     1      61.042  63.198  72.482  0.00  0.00    +0.000 C 
ATOM      8  C   UNL     1      60.993  62.791  71.765  0.00  0.00    +0.000 C 
ATOM      9  C   UNL     1      61.476  63.009  71.133  0.00  0.00    +0.000 C 
ATOM     10  C   UNL     1      63.507  64.695  70.037  0.00  0.00    +0.000 C 
ATOM     11  O   UNL     1      63.458  64.289  69.321  0.00  0.00    +0.000 OA
ATOM     12  C   UNL     1      64.040  65.320  70.121  0.00  0.00    +0.000 A 
ATOM     13  C   UNL     1      64.523  65.538  69.489  0.00  0.00    +0.000 A 
ATOM     14  C   UNL     1      65.055  66.163  69.573  0.00  0.00    +0.000 A 
ATOM     15  C   UNL     1      65.104  66.569  70.289  0.00  0.00    +0.000 A 
ATOM     16  C   UNL     1      65.637  67.194  70.373  0.00  0.00    +0.000 C 
ATOM     17  C   UNL     1      64.621  66.351  70.922  0.00  0.00    +0.000 A 
ATOM     18  C   UNL     1      64.089  65.726  70.837  0.00  0.00    +0.000 A 
ENDROOT
TORSDOF 0
ENDMDL
MODEL 5
REMARK VINA RESULT:    -9.504      4.329      5.588
REMARK INTER + INTRA:          -9.504
REMARK INTER:                  -9.504
REMARK INTRA:                   0.000
REMARK UNBOUND:                 0.000
ROOT
REMARK  Name = tolperisone
REMARK                            x       y       z     vdW  Elec       q    Type
REMARK                         _______ _______ _______ _____ _____    ______ ____
ATOM      1  C   UNL     1      63.651  65.657  71.421  0.00  0.00    +0.000 C 
ATOM      2  C   UNL     1      63.771  65.306  70.684  0.00  0.00    +0.000 C 
ATOM      3  C   UNL     1      64.330  65.617  70.164  0.00  0.00    +0.000 C 
ATOM      4  N   UNL     1      64.769  66.281  70.381  0.00  0.00    +0.000 NA
ATOM      5  C   UNL     1      64.650  66.633  71.117  0.00  0.00    +0.000 C 
ATOM      6  C   UNL     1      65.089  67.296  71.333  0.00  0.00    +0.000 C 
ATOM      7  C   UNL     1      65.649  67.608  70.814  0.00  0.00    +0.000 C 
ATOM      8  C   UNL     1      65.768  67.256  70.077  0.00  0.00    +0.000 C 
ATOM      9  C   UNL     1      65.329  66.593  69.860  0.00  0.00    +0.000 C 
ATOM     10  C   UNL     1      63.331  64.641  70.467  0.00  0.00    +0.000 C 
ATOM     11  O   UNL     1      63.450  64.290  69.731  0.00  0.00    +0.000 OA
ATOM     12  C   UNL     1      62.771  64.330  70.988  0.00  0.00    +0.000 A 
ATOM     13  C   UNL     1      62.331  63.666  70.771  0.00  0.00    +0.000 A 
ATOM     14  C   UNL     1      61.772  63.354  71.291  0.00  0.00    +0.000 A 
ATOM     15  C   UNL     1      61.652  63.706  72.028  0.00  0.00    +0.000 A 
ATOM     16  C   UNL     1      61.093  63.394  72.547  0.00  0.00    +0.000 C 
ATOM     17  C   UNL     1      62.092  64.370  72.244  0.00  0.00    +0.000 A 
ATOM     18  C   UNL     1      62.651  64.681  71.724  0.00  0.00    +0.000 A 
ENDROOT
TORSDOF 0
ENDMDL
MODEL 6
REMARK VINA RESULT:    -9.486      1.722      2.652
REMARK INTER + INTRA:          -9.486
REMARK INTER:                  -9.486
REMARK INTRA:                   0.000
REMARK UNBOUND:                 0.000
ROOT
REMARK  Name = tolperisone
REMARK                            x       y       z     vdW  Elec       q    Type
REMARK                         _______ _______ _______ _____ _____    ______ ____
ATOM      1  C   UNL     1      60.950  62.254  69.756  0.00  0.00    +0.000 C 
ATOM      2  C   UNL     1      60.554  62.977  69.789  0.00  0.00    +0.000 C 
ATOM      3  C   UNL     1      60.204  63.287  69.110  0.00  0.00    +0.000 C 
ATOM      4  N   UNL     1      60.250  62.874  68.397  0.00  0.00    +0.000 NA
ATOM      5  C   UNL     1      60.645  62.151  68.363  0.00  0.00    +0.000 C 
ATOM      6  C   UNL     1      60.691  61.739  67.651  0.00  0.00    +0.000 C 
ATOM      7  C   UNL     1      60.342  62.048  66.971  0.00  0.00    +0.000 C 
ATOM      8  C   UNL     1      59.946  62.772  67.005  0.00  0.00    +0.000 C 
ATOM      9  C   UNL     1      59.900  63.185  67.716  0.00  0.00    +0.000 C 
ATOM     10  C   UNL     1      60.508  63.391  70.502  0.00  0.00    +0.000 C 
ATOM     11  O   UNL     1      60.112  64.113  70.535  0.00  0.00    +0.000 OA
ATOM     12  C   UNL     1      60.858  63.080  71.182  0.00  0.00    +0.000 A 
ATOM     13  C   UNL     1      60.812  63.493  71.894  0.00  0.00    +0.000 A 
ATOM     14  C   UNL     1      61.162  63.183  72.574  0.00  0.00    +0.000 A 
ATOM     15  C   UNL     1      61.558  62.459  72.541  0.00  0.00    +0.000 A 
ATOM     16  C   UNL     1      61.907  62.150  73.221  0.00  0.00    +0.000 C 
ATOM     17  C   UNL     1      61.603  62.046  71.828  0.00  0.00    +0.000 A 
ATOM     18  C   UNL     1      61.253  62.357  71.149  0.00  0.00    +0.000 A 
ENDROOT
TORSDOF 0
ENDMDL
MODEL 7
REMARK VINA RESULT:    -9.058      4.550      6.123
REMARK INTER + INTRA:          -9.058
REMARK INTER:                  -9.058
REMARK INTRA:                   0.000
REMARK UNBOUND:                 0.000
ROOT
REMARK  Name = tolperisone
REMARK                            x       y       z     vdW  Elec       q    Type
REMARK                         _______ _______ _______ _____ _____    ______ ____
ATOM      1  C   UNL     1      61.774  64.755  72.381  0.00  0.00    +0.000 C 
ATOM      2  C   UNL     1      60.976  64.940  72.285  0.00  0.00    +0.000 C 
ATOM      3  C   UNL     1      60.708  65.705  72.439  0.00  0.00    +0.000 C 
ATOM      4  N   UNL     1      61.239  66.285  72.689  0.00  0.00    +0.000 NA
ATOM      5  C   UNL     1      62.037  66.100  72.785  0.00  0.00    +0.000 C 
ATOM      6  C   UNL     1      62.567  66.680  73.035  0.00  0.00    +0.000 C 
ATOM      7  C   UNL     1      62.300  67.445  73.189  0.00  0.00    +0.000 C 
ATOM      8  C   UNL     1      61.502  67.630  73.093  0.00  0.00    +0.000 C 
ATOM      9  C   UNL     1      60.971  67.051  72.843  0.00  0.00    +0.000 C 
ATOM     10  C   UNL     1      60.444  64.360  72.035  0.00  0.00    +0.000 C 
ATOM     11  O   UNL     1      59.647  64.545  71.939  0.00  0.00    +0.000 OA
ATOM     12  C   UNL     1      60.712  63.595  71.881  0.00  0.00    +0.000 A 
ATOM     13  C   UNL     1      60.182  63.015  71.631  0.00  0.00    +0.000 A 
ATOM     14  C   UNL     1      60.448  62.249  71.477  0.00  0.00    +0.000 A 
ATOM     15  C   UNL     1      61.247  62.064  71.574  0.00  0.00    +0.000 A 
ATOM     16  C   UNL     1      61.514  61.299  71.420  0.00  0.00    +0.000 C 
ATOM     17  C   UNL     1      61.778  62.644  71.824  0.00  0.00    +0.000 A 
ATOM     18  C   UNL     1      61.510  63.409  71.977  0.00  0.00    +0.000 A 
ENDROOT
TORSDOF 0
ENDMDL
MODEL 8
REMARK VINA RESULT:    -8.763      3.897      4.721
REMARK INTER + INTRA:          -8.763
REMARK INTER:                  -8.763
REMARK INTRA:                   0.000
REMARK UNBOUND:                 0.000
ROOT
REMARK  Name = tolperisone
REMARK                            x       y       z     vdW  Elec       q    Type
REMARK                         _______ _______ _______ _____ _____    ______ ____
ATOM      1  C   UNL     1      60.761  65.197  71.128  0.00  0.00    +0.000 C 
ATOM      2  C   UNL     1      60.448  64.756  70.504  0.00  0.00    +0.000 C 
ATOM      3  C   UNL     1      60.123  65.139  69.850  0.00  0.00    +0.000 C 
ATOM      4  N   UNL     1      60.110  65.963  69.819  0.00  0.00    +0.000 NA
ATOM      5  C   UNL     1      60.423  66.405  70.442  0.00  0.00    +0.000 C 
ATOM      6  C   UNL     1      60.410  67.228  70.410  0.00  0.00    +0.000 C 
ATOM      7  C   UNL     1      60.085  67.611  69.756  0.00  0.00    +0.000 C 
ATOM      8  C   UNL     1      59.772  67.170  69.133  0.00  0.00    +0.000 C 
ATOM      9  C   UNL     1      59.785  66.346  69.164  0.00  0.00    +0.000 C 
ATOM     10  C   UNL     1      60.461  63.931  70.536  0.00  0.00    +0.000 C 
ATOM     11  O   UNL     1      60.149  63.490  69.913  0.00  0.00    +0.000 OA
ATOM     12  C   UNL     1      60.787  63.548  71.190  0.00  0.00    +0.000 A 
ATOM     13  C   UNL     1      60.800  62.724  71.222  0.00  0.00    +0.000 A 
ATOM     14  C   UNL     1      61.125  62.341  71.875  0.00  0.00    +0.000 A 
ATOM     15  C   UNL     1      61.438  62.783  72.499  0.00  0.00    +0.000 A 
ATOM     16  C   UNL     1      61.763  62.399  73.153  0.00  0.00    +0.000 C 
ATOM     17  C   UNL     1      61.425  63.607  72.467  0.00  0.00    +0.000 A 
ATOM     18  C   UNL     1      61.100  63.989  71.813  0.00  0.00    +0.000 A 
ENDROOT
TORSDOF 0
ENDMDL
MODEL 9
REMARK VINA RESULT:    -8.660      2.590      4.744
REMARK INTER + INTRA:          -8.660
REMARK INTER:                  -8.660
REMARK INTRA:                   0.000
REMARK UNBOUND:                 0.000
ROOT
REMARK  Name = tolperisone
REMARK                            x       y       z     vdW  Elec       q    Type
REMARK                         _______ _______ _______ _____ _____    ______ ____
ATOM      1  C   UNL     1      60.120  64.799  69.110  0.00  0.00    +0.000 C 
ATOM      2  C   UNL     1      60.110  64.389  69.826  0.00  0.00    +0.000 C 
ATOM      3  C   UNL     1      59.942  64.787  70.528  0.00  0.00    +0.000 C 
ATOM      4  N   UNL     1      59.784  65.597  70.515  0.00  0.00    +0.000 NA
ATOM      5  C   UNL     1      59.794  66.008  69.801  0.00  0.00    +0.000 C 
ATOM      6  C   UNL     1      59.637  66.817  69.788  0.00  0.00    +0.000 C 
ATOM      7  C   UNL     1      59.468  67.216  70.490  0.00  0.00    +0.000 C 
ATOM      8  C   UNL     1      59.458  66.805  71.206  0.00  0.00    +0.000 C 
ATOM      9  C   UNL     1      59.616  65.996  71.218  0.00  0.00    +0.000 C 
ATOM     10  C   UNL     1      60.268  63.578  69.839  0.00  0.00    +0.000 C 
ATOM     11  O   UNL     1      60.257  63.168  70.554  0.00  0.00    +0.000 OA
ATOM     12  C   UNL     1      60.436  63.180  69.136  0.00  0.00    +0.000 A 
ATOM     13  C   UNL     1      60.593  62.370  69.149  0.00  0.00    +0.000 A 
ATOM     14  C   UNL     1      60.762  61.971  68.447  0.00  0.00    +0.000 A 
ATOM     15  C   UNL     1      60.772  62.383  67.731  0.00  0.00    +0.000 A 
ATOM     16  C   UNL     1      60.940  61.984  67.029  0.00  0.00    +0.000 C 
ATOM     17  C   UNL     1      60.614  63.192  67.718  0.00  0.00    +0.000 A 
ATOM     18  C   UNL     1      60.446  63.591  68.421  0.00  0.00    +0.000 A 
ENDROOT
TORSDOF 0
ENDMDL
