MODEL 1
REMARK VINA RESULT:   -10.679      0.000      0.000
REMARK INTER + INTRA:         -10.679
REMARK INTER:                 -10.679
REMARK INTRA:                   0.000
REMARK UNBOUND:                 0.000
ROOT
REMARK  Name = tolpropamine
REMARK                            x       y       z     vdW  Elec       q    Type
REMARK                         _______ _______ _______ _____ _____    ______ ____
ATOM      1  C   UNL     1      61.168  63.747  68.828  0.00  0.00    +0.000 C 
ATOM      2  N   UNL     1      61.556  63.523  68.134  0.00  0.00    +0.000 NA
ATOM      3  C   UNL     1      62.353  63.701  68.031  0.00  0.00    +0.000 C 
ATOM      4  C   UNL     1      61.143  63.119  67.544  0.00  0.00    +0.000 C 
ATOM      5  C   UNL     1      61.531  62.895  66.852  0.00  0.00    +0.000 C 
ATOM      6  C   UNL     1      61.118  62.491  66.261  0.00  0.00    +0.000 C 
ATOM      7  C   UNL     1      60.320  62.312  66.364  0.00  0.00    +0.000 A 
ATOM      8  C   UNL     1      59.933  62.537  67.058  0.00  0.00    +0.000 A 
ATOM      9  C   UNL     1      59.134  62.358  67.161  0.00  0.00    +0.000 A 
ATOM     10  C   UNL     1      58.722  61.955  66.570  0.00  0.00    +0.000 A 
ATOM     11  C   UNL     1      59.109  61.730  65.877  0.00  0.00    +0.000 A 
ATOM     12  C   UNL     1      59.908  61.909  65.774  0.00  0.00    +0.000 A 
ATOM     13  C   UNL     1      61.506  62.267  65.568  0.00  0.00    +0.000 A 
ATOM     14  C   UNL     1      61.093  61.864  64.978  0.00  0.00    +0.000 A 
ATOM     15  C   UNL     1      61.481  61.640  64.285  0.00  0.00    +0.000 A 
ATOM     16  C   UNL     1      62.279  61.818  64.182  0.00  0.00    +0.000 A 
ATOM     17  C   UNL     1      62.666  61.594  63.488  0.00  0.00    +0.000 C 
ATOM     18  C   UNL     1      62.691  62.222  64.771  0.00  0.00    +0.000 A 
ATOM     19  C   UNL     1      62.304  62.446  65.465  0.00  0.00    +0.000 A 
ENDROOT
TORSDOF 0
ENDMDL
MODEL 2
REMARK VINA RESULT:   -10.346      3.078      5.310
REMARK INTER + INTRA:         -10.346
REMARK INTER:                 -10.346
REMARK INTRA:                   0.000
REMARK UNBOUND:                 0.000
ROOT
REMARK  Name = tolpropamine
REMARK                            x       y       z     vdW  Elec       q    Type
REMARK                         _______ _______ _______ _____ _____    ______ ____
ATOM      1  C   UNL     1      59.570  65.902  69.294  0.00  0.00    +0.000 C 
ATOM      2  N   UNL     1      59.879  65.516  69.955  0.00  0.00    +0.000 NA
ATOM      3  C   UNL     1      59.969  65.923  70.666  0.00  0.00    +0.000 C 
ATOM      4  C   UNL     1      60.099  64.722  69.904  0.00  0.00    +0.000 C 
ATOM      5  C   UNL     1      60.408  64.337  70.565  0.00  0.00    +0.000 C 
ATOM      6  C   UNL     1      60.628  63.543  70.514  0.00  0.00    +0.000 C 
ATOM      7  C   UNL     1      60.538  63.135  69.802  0.00  0.00    +0.000 A 
ATOM      8  C   UNL     1      60.229  63.521  69.142  0.00  0.00    +0.000 A 
ATOM      9  C   UNL     1      60.139  63.113  68.430  0.00  0.00    +0.000 A 
ATOM     10  C   UNL     1      60.359  62.319  68.380  0.00  0.00    +0.000 A 
ATOM     11  C   UNL     1      60.668  61.934  69.040  0.00  0.00    +0.000 A 
ATOM     12  C   UNL     1      60.758  62.342  69.752  0.00  0.00    +0.000 A 
ATOM     13  C   UNL     1      60.937  63.158  71.175  0.00  0.00    +0.000 A 
ATOM     14  C   UNL     1      61.157  62.364  71.124  0.00  0.00    +0.000 A 
ATOM     15  C   UNL     1      61.466  61.979  71.784  0.00  0.00    +0.000 A 
ATOM     16  C   UNL     1      61.555  62.387  72.495  0.00  0.00    +0.000 A 
ATOM     17  C   UNL     1      61.865  62.001  73.156  0.00  0.00    +0.000 C 
ATOM     18  C   UNL     1      61.336  63.180  72.546  0.00  0.00    +0.000 A 
ATOM     19  C   UNL     1      61.026  63.566  71.885  0.00  0.00    +0.000 A 
ENDROOT
TORSDOF 0
ENDMDL
MODEL 3
REMARK VINA RESULT:   -10.146      2.877      5.115
REMARK INTER + INTRA:         -10.146
REMARK INTER:                 -10.146
REMARK INTRA:                   0.000
REMARK UNBOUND:                 0.000
ROOT
REMARK  Name = tolpropamine
REMARK                            x       y       z     vdW  Elec       q    Type
REMARK                         _______ _______ _______ _____ _____    ______ ____
ATOM      1  C   UNL     1      59.772  65.677  72.490  0.00  0.00    +0.000 C 
ATOM      2  N   UNL     1      59.769  65.321  71.745  0.00  0.00    +0.000 NA
ATOM      3  C   UNL     1      59.401  65.696  71.110  0.00  0.00    +0.000 C 
ATOM      4  C   UNL     1      60.134  64.589  71.637  0.00  0.00    +0.000 C 
ATOM      5  C   UNL     1      60.131  64.234  70.893  0.00  0.00    +0.000 C 
ATOM      6  C   UNL     1      60.496  63.501  70.784  0.00  0.00    +0.000 C 
ATOM      7  C   UNL     1      60.865  63.126  71.420  0.00  0.00    +0.000 A 
ATOM      8  C   UNL     1      60.867  63.483  72.164  0.00  0.00    +0.000 A 
ATOM      9  C   UNL     1      61.236  63.107  72.800  0.00  0.00    +0.000 A 
ATOM     10  C   UNL     1      61.602  62.375  72.691  0.00  0.00    +0.000 A 
ATOM     11  C   UNL     1      61.599  62.019  71.948  0.00  0.00    +0.000 A 
ATOM     12  C   UNL     1      61.230  62.395  71.311  0.00  0.00    +0.000 A 
ATOM     13  C   UNL     1      60.493  63.146  70.040  0.00  0.00    +0.000 A 
ATOM     14  C   UNL     1      60.859  62.413  69.932  0.00  0.00    +0.000 A 
ATOM     15  C   UNL     1      60.855  62.058  69.187  0.00  0.00    +0.000 A 
ATOM     16  C   UNL     1      60.487  62.433  68.553  0.00  0.00    +0.000 A 
ATOM     17  C   UNL     1      60.484  62.076  67.808  0.00  0.00    +0.000 C 
ATOM     18  C   UNL     1      60.122  63.164  68.661  0.00  0.00    +0.000 A 
ATOM     19  C   UNL     1      60.125  63.521  69.405  0.00  0.00    +0.000 A 
ENDROOT
TORSDOF 0
ENDMDL
MODEL 4
REMARK VINA RESULT:    -9.972      3.325      6.488
REMARK INTER + INTRA:          -9.972
REMARK INTER:                  -9.972
REMARK INTRA:                   0.000
REMARK UNBOUND:                 0.000
ROOT
REMARK  Name = tolpropamine
REMARK                            x       y       z     vdW  Elec       q    Type
REMARK                         _______ _______ _______ _____ _____    ______ ____
ATOM      1  C   UNL     1      60.827  62.013  68.833  0.00  0.00    +0.000 C 
ATOM      2  N   UNL     1      60.520  62.656  69.250  0.00  0.00    +0.000 NA
ATOM      3  C   UNL     1      60.063  63.220  68.860  0.00  0.00    +0.000 C 
ATOM      4  C   UNL     1      60.671  62.733  70.058  0.00  0.00    +0.000 C 
ATOM      5  C   UNL     1      60.364  63.375  70.474  0.00  0.00    +0.000 C 
ATOM      6  C   UNL     1      60.514  63.453  71.282  0.00  0.00    +0.000 C 
ATOM      7  C   UNL     1      60.972  62.888  71.673  0.00  0.00    +0.000 A 
ATOM      8  C   UNL     1      61.279  62.246  71.255  0.00  0.00    +0.000 A 
ATOM      9  C   UNL     1      61.737  61.680  71.646  0.00  0.00    +0.000 A 
ATOM     10  C   UNL     1      61.887  61.758  72.453  0.00  0.00    +0.000 A 
ATOM     11  C   UNL     1      61.580  62.400  72.870  0.00  0.00    +0.000 A 
ATOM     12  C   UNL     1      61.122  62.965  72.479  0.00  0.00    +0.000 A 
ATOM     13  C   UNL     1      60.207  64.095  71.699  0.00  0.00    +0.000 A 
ATOM     14  C   UNL     1      60.358  64.172  72.507  0.00  0.00    +0.000 A 
ATOM     15  C   UNL     1      60.050  64.815  72.923  0.00  0.00    +0.000 A 
ATOM     16  C   UNL     1      59.594  65.379  72.533  0.00  0.00    +0.000 A 
ATOM     17  C   UNL     1      59.286  66.021  72.951  0.00  0.00    +0.000 C 
ATOM     18  C   UNL     1      59.443  65.302  71.726  0.00  0.00    +0.000 A 
ATOM     19  C   UNL     1      59.750  64.659  71.309  0.00  0.00    +0.000 A 
ENDROOT
TORSDOF 0
ENDMDL
MODEL 5
REMARK VINA RESULT:    -9.972      5.323      7.073
REMARK INTER + INTRA:          -9.972
REMARK INTER:                  -9.972
REMARK INTRA:                   0.000
REMARK UNBOUND:                 0.000
ROOT
REMARK  Name = tolpropamine
REMARK                            x       y       z     vdW  Elec       q    Type
REMARK                         _______ _______ _______ _____ _____    ______ ____
ATOM      1  C   UNL     1      61.518  66.049  73.036  0.00  0.00    +0.000 C 
ATOM      2  N   UNL     1      62.192  66.435  72.757  0.00  0.00    +0.000 NA
ATOM      3  C   UNL     1      62.422  67.155  73.086  0.00  0.00    +0.000 C 
ATOM      4  C   UNL     1      62.637  66.099  72.148  0.00  0.00    +0.000 C 
ATOM      5  C   UNL     1      63.311  66.485  71.870  0.00  0.00    +0.000 C 
ATOM      6  C   UNL     1      63.756  66.149  71.261  0.00  0.00    +0.000 C 
ATOM      7  C   UNL     1      63.527  65.428  70.931  0.00  0.00    +0.000 A 
ATOM      8  C   UNL     1      62.852  65.044  71.211  0.00  0.00    +0.000 A 
ATOM      9  C   UNL     1      62.622  64.322  70.880  0.00  0.00    +0.000 A 
ATOM     10  C   UNL     1      63.068  63.987  70.272  0.00  0.00    +0.000 A 
ATOM     11  C   UNL     1      63.742  64.372  69.993  0.00  0.00    +0.000 A 
ATOM     12  C   UNL     1      63.971  65.093  70.323  0.00  0.00    +0.000 A 
ATOM     13  C   UNL     1      64.430  66.535  70.983  0.00  0.00    +0.000 A 
ATOM     14  C   UNL     1      64.875  66.199  70.374  0.00  0.00    +0.000 A 
ATOM     15  C   UNL     1      65.549  66.584  70.096  0.00  0.00    +0.000 A 
ATOM     16  C   UNL     1      65.778  67.304  70.425  0.00  0.00    +0.000 A 
ATOM     17  C   UNL     1      66.453  67.690  70.146  0.00  0.00    +0.000 C 
ATOM     18  C   UNL     1      65.334  67.640  71.034  0.00  0.00    +0.000 A 
ATOM     19  C   UNL     1      64.659  67.254  71.312  0.00  0.00    +0.000 A 
ENDROOT
TORSDOF 0
ENDMDL
MODEL 6
REMARK VINA RESULT:    -9.893      4.635      7.221
REMARK INTER + INTRA:          -9.893
REMARK INTER:                  -9.893
REMARK INTRA:                   0.000
REMARK UNBOUND:                 0.000
ROOT
REMARK  Name = tolpropamine
REMARK                            x       y       z     vdW  Elec       q    Type
REMARK                         _______ _______ _______ _____ _____    ______ ____
ATOM      1  C   UNL     1      61.769  64.071  70.417  0.00  0.00    +0.000 C 
ATOM      2  N   UNL     1      62.460  64.471  70.210  0.00  0.00    +0.000 NA
ATOM      3  C   UNL     1      62.868  64.263  69.525  0.00  0.00    +0.000 C 
ATOM      4  C   UNL     1      62.743  65.080  70.689  0.00  0.00    +0.000 C 
ATOM      5  C   UNL     1      63.434  65.480  70.481  0.00  0.00    +0.000 C 
ATOM      6  C   UNL     1      63.717  66.090  70.961  0.00  0.00    +0.000 C 
ATOM      7  C   UNL     1      63.309  66.299  71.647  0.00  0.00    +0.000 A 
ATOM      8  C   UNL     1      62.618  65.898  71.853  0.00  0.00    +0.000 A 
ATOM      9  C   UNL     1      62.210  66.107  72.540  0.00  0.00    +0.000 A 
ATOM     10  C   UNL     1      62.493  66.717  73.019  0.00  0.00    +0.000 A 
ATOM     11  C   UNL     1      63.184  67.117  72.812  0.00  0.00    +0.000 A 
ATOM     12  C   UNL     1      63.592  66.908  72.125  0.00  0.00    +0.000 A 
ATOM     13  C   UNL     1      64.408  66.490  70.753  0.00  0.00    +0.000 A 
ATOM     14  C   UNL     1      64.691  67.100  71.232  0.00  0.00    +0.000 A 
ATOM     15  C   UNL     1      65.382  67.500  71.025  0.00  0.00    +0.000 A 
ATOM     16  C   UNL     1      65.789  67.291  70.339  0.00  0.00    +0.000 A 
ATOM     17  C   UNL     1      66.480  67.692  70.132  0.00  0.00    +0.000 C 
ATOM     18  C   UNL     1      65.506  66.682  69.860  0.00  0.00    +0.000 A 
ATOM     19  C   UNL     1      64.815  66.281  70.068  0.00  0.00    +0.000 A 
ENDROOT
TORSDOF 0
ENDMDL
MODEL 7
REMARK VINA RESULT:    -9.661      2.913      5.666
REMARK INTER + INTRA:          -9.661
REMARK INTER:                  -9.661
REMARK INTRA:                   0.000
REMARK UNBOUND:                 0.000
ROOT
REMARK  Name = tolpropamine
REMARK                            x       y       z     vdW  Elec       q    Type
REMARK                         _______ _______ _______ _____ _____    ______ ____
ATOM      1  C   UNL     1      60.510  62.386  68.810  0.00  0.00    +0.000 C 
ATOM      2  N   UNL     1      61.107  62.950  68.895  0.00  0.00    +0.000 NA
ATOM      3  C   UNL     1      61.473  63.266  68.227  0.00  0.00    +0.000 C 
ATOM      4  C   UNL     1      61.336  63.198  69.648  0.00  0.00    +0.000 C 
ATOM      5  C   UNL     1      61.932  63.762  69.731  0.00  0.00    +0.000 C 
ATOM      6  C   UNL     1      62.162  64.010  70.485  0.00  0.00    +0.000 C 
ATOM      7  C   UNL     1      61.795  63.694  71.153  0.00  0.00    +0.000 A 
ATOM      8  C   UNL     1      61.198  63.130  71.068  0.00  0.00    +0.000 A 
ATOM      9  C   UNL     1      60.831  62.814  71.736  0.00  0.00    +0.000 A 
ATOM     10  C   UNL     1      61.061  63.063  72.489  0.00  0.00    +0.000 A 
ATOM     11  C   UNL     1      61.657  63.626  72.574  0.00  0.00    +0.000 A 
ATOM     12  C   UNL     1      62.024  63.942  71.905  0.00  0.00    +0.000 A 
ATOM     13  C   UNL     1      62.758  64.574  70.568  0.00  0.00    +0.000 A 
ATOM     14  C   UNL     1      62.988  64.822  71.322  0.00  0.00    +0.000 A 
ATOM     15  C   UNL     1      63.584  65.385  71.405  0.00  0.00    +0.000 A 
ATOM     16  C   UNL     1      63.950  65.701  70.738  0.00  0.00    +0.000 A 
ATOM     17  C   UNL     1      64.547  66.265  70.822  0.00  0.00    +0.000 C 
ATOM     18  C   UNL     1      63.721  65.453  69.985  0.00  0.00    +0.000 A 
ATOM     19  C   UNL     1      63.124  64.889  69.901  0.00  0.00    +0.000 A 
ENDROOT
TORSDOF 0
ENDMDL
MODEL 8
REMARK VINA RESULT:    -9.646      6.082      7.170
REMARK INTER + INTRA:          -9.646
REMARK INTER:                  -9.646
REMARK INTRA:                   0.000
REMARK UNBOUND:                 0.000
ROOT
REMARK  Name = tolpropamine
REMARK                            x       y       z     vdW  Elec       q    Type
REMARK                         _______ _______ _______ _____ _____    ______ ____
ATOM      1  C   UNL     1      62.028  67.810  73.098  0.00  0.00    +0.000 C 
ATOM      2  N   UNL     1      62.152  67.019  72.897  0.00  0.00    +0.000 NA
ATOM      3  C   UNL     1      62.914  66.750  72.736  0.00  0.00    +0.000 C 
ATOM      4  C   UNL     1      61.513  66.499  72.858  0.00  0.00    +0.000 C 
ATOM      5  C   UNL     1      61.638  65.709  72.657  0.00  0.00    +0.000 C 
ATOM      6  C   UNL     1      60.999  65.187  72.618  0.00  0.00    +0.000 C 
ATOM      7  C   UNL     1      60.236  65.457  72.779  0.00  0.00    +0.000 A 
ATOM      8  C   UNL     1      60.113  66.248  72.980  0.00  0.00    +0.000 A 
ATOM      9  C   UNL     1      59.349  66.518  73.142  0.00  0.00    +0.000 A 
ATOM     10  C   UNL     1      58.711  65.996  73.103  0.00  0.00    +0.000 A 
ATOM     11  C   UNL     1      58.835  65.206  72.902  0.00  0.00    +0.000 A 
ATOM     12  C   UNL     1      59.599  64.936  72.740  0.00  0.00    +0.000 A 
ATOM     13  C   UNL     1      61.124  64.397  72.417  0.00  0.00    +0.000 A 
ATOM     14  C   UNL     1      60.485  63.876  72.378  0.00  0.00    +0.000 A 
ATOM     15  C   UNL     1      60.610  63.086  72.177  0.00  0.00    +0.000 A 
ATOM     16  C   UNL     1      61.372  62.817  72.016  0.00  0.00    +0.000 A 
ATOM     17  C   UNL     1      61.496  62.026  71.815  0.00  0.00    +0.000 C 
ATOM     18  C   UNL     1      62.011  63.337  72.055  0.00  0.00    +0.000 A 
ATOM     19  C   UNL     1      61.886  64.128  72.256  0.00  0.00    +0.000 A 
ENDROOT
TORSDOF 0
ENDMDL
MODEL 9
REMARK VINA RESULT:    -9.602      5.781      6.439
REMARK INTER + INTRA:          -9.602
REMARK INTER:                  -9.602
REMARK INTRA:                   0.000
REMARK UNBOUND:                 0.000
ROOT
REMARK  Name = tolpropamine
REMARK                            x       y       z     vdW  Elec       q    Type
REMARK                         _______ _______ _______ _____ _____    ______ ____
ATOM      1  C   UNL     1      60.400  66.950  73.198  0.00  0.00    +0.000 C 
ATOM      2  N   UNL     1      61.031  66.897  72.668  0.00  0.00    +0.000 NA
ATOM      3  C   UNL     1      61.376  67.584  72.369  0.00  0.00    +0.000 C 
ATOM      4  C   UNL     1      61.316  66.158  72.438  0.00  0.00    +0.000 C 
ATOM      5  C   UNL     1      61.946  66.107  71.909  0.00  0.00    +0.000 C 
ATOM      6  C   UNL     1      62.231  65.367  71.678  0.00  0.00    +0.000 C 
ATOM      7  C   UNL     1      61.886  64.680  71.978  0.00  0.00    +0.000 A 
ATOM      8  C   UNL     1      61.256  64.733  72.507  0.00  0.00    +0.000 A 
ATOM      9  C   UNL     1      60.910  64.045  72.807  0.00  0.00    +0.000 A 
ATOM     10  C   UNL     1      61.196  63.306  72.576  0.00  0.00    +0.000 A 
ATOM     11  C   UNL     1      61.826  63.254  72.047  0.00  0.00    +0.000 A 
ATOM     12  C   UNL     1      62.171  63.942  71.747  0.00  0.00    +0.000 A 
ATOM     13  C   UNL     1      62.862  65.315  71.149  0.00  0.00    +0.000 A 
ATOM     14  C   UNL     1      63.147  64.576  70.918  0.00  0.00    +0.000 A 
ATOM     15  C   UNL     1      63.777  64.524  70.389  0.00  0.00    +0.000 A 
ATOM     16  C   UNL     1      64.122  65.210  70.090  0.00  0.00    +0.000 A 
ATOM     17  C   UNL     1      64.753  65.158  69.559  0.00  0.00    +0.000 C 
ATOM     18  C   UNL     1      63.837  65.950  70.319  0.00  0.00    +0.000 A 
ATOM     19  C   UNL     1      63.206  66.002  70.850  0.00  0.00    +0.000 A 
ENDROOT
TORSDOF 0
ENDMDL
