MODEL 1
REMARK VINA RESULT:    -7.000      0.000      0.000
REMARK INTER + INTRA:          -7.000
REMARK INTER:                  -7.000
REMARK INTRA:                   0.000
REMARK UNBOUND:                 0.000
ROOT
REMARK  Name = tranylcypromine
REMARK                            x       y       z     vdW  Elec       q    Type
REMARK                         _______ _______ _______ _____ _____    ______ ____
ATOM      1  N   UNL     1      59.897  62.741  67.426  0.00  0.00    +0.000 NA
ATOM      2  C   UNL     1      59.828  62.336  66.710  0.00  0.00    +0.000 C 
ATOM      3  C   UNL     1      59.365  61.934  66.159  0.00  0.00    +0.000 C 
ATOM      4  C   UNL     1      60.172  62.038  66.022  0.00  0.00    +0.000 C 
ATOM      5  C   UNL     1      60.836  61.925  65.546  0.00  0.00    +0.000 A 
ATOM      6  C   UNL     1      60.767  61.521  64.831  0.00  0.00    +0.000 A 
ATOM      7  C   UNL     1      61.432  61.408  64.354  0.00  0.00    +0.000 A 
ATOM      8  C   UNL     1      62.165  61.700  64.594  0.00  0.00    +0.000 A 
ATOM      9  C   UNL     1      62.234  62.105  65.309  0.00  0.00    +0.000 A 
ATOM     10  C   UNL     1      61.570  62.218  65.785  0.00  0.00    +0.000 A 
ENDROOT
TORSDOF 0
ENDMDL
MODEL 2
REMARK VINA RESULT:    -6.652      1.457      2.731
REMARK INTER + INTRA:          -6.652
REMARK INTER:                  -6.652
REMARK INTRA:                   0.000
REMARK UNBOUND:                 0.000
ROOT
REMARK  Name = tranylcypromine
REMARK                            x       y       z     vdW  Elec       q    Type
REMARK                         _______ _______ _______ _____ _____    ______ ____
ATOM      1  N   UNL     1      62.171  61.612  63.951  0.00  0.00    +0.000 NA
ATOM      2  C   UNL     1      62.074  61.978  64.685  0.00  0.00    +0.000 C 
ATOM      3  C   UNL     1      62.386  62.412  65.313  0.00  0.00    +0.000 C 
ATOM      4  C   UNL     1      61.595  62.177  65.327  0.00  0.00    +0.000 C 
ATOM      5  C   UNL     1      60.863  62.156  65.705  0.00  0.00    +0.000 A 
ATOM      6  C   UNL     1      60.767  62.521  66.438  0.00  0.00    +0.000 A 
ATOM      7  C   UNL     1      60.033  62.499  66.816  0.00  0.00    +0.000 A 
ATOM      8  C   UNL     1      59.397  62.113  66.461  0.00  0.00    +0.000 A 
ATOM      9  C   UNL     1      59.493  61.748  65.728  0.00  0.00    +0.000 A 
ATOM     10  C   UNL     1      60.226  61.769  65.350  0.00  0.00    +0.000 A 
ENDROOT
TORSDOF 0
ENDMDL
MODEL 3
REMARK VINA RESULT:    -6.320     17.981     18.492
REMARK INTER + INTRA:          -6.320
REMARK INTER:                  -6.320
REMARK INTRA:                   0.000
REMARK UNBOUND:                 0.000
ROOT
REMARK  Name = tranylcypromine
REMARK                            x       y       z     vdW  Elec       q    Type
REMARK                         _______ _______ _______ _____ _____    ______ ____
ATOM      1  N   UNL     1      63.850  79.355  58.274  0.00  0.00    +0.000 NA
ATOM      2  C   UNL     1      64.606  79.483  58.582  0.00  0.00    +0.000 C 
ATOM      3  C   UNL     1      65.242  79.987  58.725  0.00  0.00    +0.000 C 
ATOM      4  C   UNL     1      65.275  79.201  58.973  0.00  0.00    +0.000 C 
ATOM      5  C   UNL     1      65.681  78.585  59.342  0.00  0.00    +0.000 A 
ATOM      6  C   UNL     1      66.434  78.713  59.649  0.00  0.00    +0.000 A 
ATOM      7  C   UNL     1      66.840  78.096  60.018  0.00  0.00    +0.000 A 
ATOM      8  C   UNL     1      66.491  77.351  60.079  0.00  0.00    +0.000 A 
ATOM      9  C   UNL     1      65.738  77.223  59.771  0.00  0.00    +0.000 A 
ATOM     10  C   UNL     1      65.332  77.839  59.402  0.00  0.00    +0.000 A 
ENDROOT
TORSDOF 0
ENDMDL
MODEL 4
REMARK VINA RESULT:    -6.089      5.001      6.162
REMARK INTER + INTRA:          -6.089
REMARK INTER:                  -6.089
REMARK INTRA:                   0.000
REMARK UNBOUND:                 0.000
ROOT
REMARK  Name = tranylcypromine
REMARK                            x       y       z     vdW  Elec       q    Type
REMARK                         _______ _______ _______ _____ _____    ______ ____
ATOM      1  N   UNL     1      60.407  62.339  69.394  0.00  0.00    +0.000 NA
ATOM      2  C   UNL     1      60.576  62.032  70.142  0.00  0.00    +0.000 C 
ATOM      3  C   UNL     1      60.603  61.393  70.662  0.00  0.00    +0.000 C 
ATOM      4  C   UNL     1      60.840  62.141  70.916  0.00  0.00    +0.000 C 
ATOM      5  C   UNL     1      61.130  62.636  71.509  0.00  0.00    +0.000 A 
ATOM      6  C   UNL     1      61.298  62.329  72.255  0.00  0.00    +0.000 A 
ATOM      7  C   UNL     1      61.588  62.825  72.849  0.00  0.00    +0.000 A 
ATOM      8  C   UNL     1      61.709  63.626  72.694  0.00  0.00    +0.000 A 
ATOM      9  C   UNL     1      61.541  63.932  71.948  0.00  0.00    +0.000 A 
ATOM     10  C   UNL     1      61.251  63.438  71.355  0.00  0.00    +0.000 A 
ENDROOT
TORSDOF 0
ENDMDL
MODEL 5
REMARK VINA RESULT:    -6.057      5.429      6.346
REMARK INTER + INTRA:          -6.057
REMARK INTER:                  -6.057
REMARK INTRA:                   0.000
REMARK UNBOUND:                 0.000
ROOT
REMARK  Name = tranylcypromine
REMARK                            x       y       z     vdW  Elec       q    Type
REMARK                         _______ _______ _______ _____ _____    ______ ____
ATOM      1  N   UNL     1      59.320  64.800  71.709  0.00  0.00    +0.000 NA
ATOM      2  C   UNL     1      59.956  64.401  72.053  0.00  0.00    +0.000 C 
ATOM      3  C   UNL     1      60.548  64.361  72.626  0.00  0.00    +0.000 C 
ATOM      4  C   UNL     1      60.464  63.752  72.076  0.00  0.00    +0.000 C 
ATOM      5  C   UNL     1      60.710  63.025  71.773  0.00  0.00    +0.000 A 
ATOM      6  C   UNL     1      61.344  62.628  72.116  0.00  0.00    +0.000 A 
ATOM      7  C   UNL     1      61.589  61.900  71.812  0.00  0.00    +0.000 A 
ATOM      8  C   UNL     1      61.199  61.572  71.164  0.00  0.00    +0.000 A 
ATOM      9  C   UNL     1      60.564  61.969  70.821  0.00  0.00    +0.000 A 
ATOM     10  C   UNL     1      60.319  62.696  71.124  0.00  0.00    +0.000 A 
ENDROOT
TORSDOF 0
ENDMDL
MODEL 6
REMARK VINA RESULT:    -6.031      7.361      7.996
REMARK INTER + INTRA:          -6.031
REMARK INTER:                  -6.031
REMARK INTRA:                   0.000
REMARK UNBOUND:                 0.000
ROOT
REMARK  Name = tranylcypromine
REMARK                            x       y       z     vdW  Elec       q    Type
REMARK                         _______ _______ _______ _____ _____    ______ ____
ATOM      1  N   UNL     1      63.523  65.276  71.324  0.00  0.00    +0.000 NA
ATOM      2  C   UNL     1      63.861  65.646  70.667  0.00  0.00    +0.000 C 
ATOM      3  C   UNL     1      63.865  65.797  69.857  0.00  0.00    +0.000 C 
ATOM      4  C   UNL     1      64.440  66.135  70.343  0.00  0.00    +0.000 C 
ATOM      5  C   UNL     1      65.106  66.613  70.435  0.00  0.00    +0.000 A 
ATOM      6  C   UNL     1      65.443  66.982  69.779  0.00  0.00    +0.000 A 
ATOM      7  C   UNL     1      66.110  67.460  69.872  0.00  0.00    +0.000 A 
ATOM      8  C   UNL     1      66.439  67.567  70.620  0.00  0.00    +0.000 A 
ATOM      9  C   UNL     1      66.102  67.198  71.276  0.00  0.00    +0.000 A 
ATOM     10  C   UNL     1      65.436  66.720  71.184  0.00  0.00    +0.000 A 
ENDROOT
TORSDOF 0
ENDMDL
MODEL 7
REMARK VINA RESULT:    -5.981      7.318      8.063
REMARK INTER + INTRA:          -5.981
REMARK INTER:                  -5.981
REMARK INTRA:                   0.000
REMARK UNBOUND:                 0.000
ROOT
REMARK  Name = tranylcypromine
REMARK                            x       y       z     vdW  Elec       q    Type
REMARK                         _______ _______ _______ _____ _____    ______ ____
ATOM      1  N   UNL     1      66.854  67.258  71.345  0.00  0.00    +0.000 NA
ATOM      2  C   UNL     1      66.346  67.294  70.694  0.00  0.00    +0.000 C 
ATOM      3  C   UNL     1      66.122  67.644  69.982  0.00  0.00    +0.000 C 
ATOM      4  C   UNL     1      65.693  67.006  70.281  0.00  0.00    +0.000 C 
ATOM      5  C   UNL     1      65.068  66.472  70.214  0.00  0.00    +0.000 A 
ATOM      6  C   UNL     1      64.562  66.508  69.565  0.00  0.00    +0.000 A 
ATOM      7  C   UNL     1      63.937  65.973  69.499  0.00  0.00    +0.000 A 
ATOM      8  C   UNL     1      63.819  65.402  70.083  0.00  0.00    +0.000 A 
ATOM      9  C   UNL     1      64.326  65.366  70.732  0.00  0.00    +0.000 A 
ATOM     10  C   UNL     1      64.950  65.900  70.799  0.00  0.00    +0.000 A 
ENDROOT
TORSDOF 0
ENDMDL
MODEL 8
REMARK VINA RESULT:    -5.785     24.981     25.489
REMARK INTER + INTRA:          -5.785
REMARK INTER:                  -5.785
REMARK INTRA:                   0.000
REMARK UNBOUND:                 0.000
ROOT
REMARK  Name = tranylcypromine
REMARK                            x       y       z     vdW  Elec       q    Type
REMARK                         _______ _______ _______ _____ _____    ______ ____
ATOM      1  N   UNL     1      70.579  81.209  51.252  0.00  0.00    +0.000 NA
ATOM      2  C   UNL     1      70.215  80.521  50.976  0.00  0.00    +0.000 C 
ATOM      3  C   UNL     1      69.576  80.000  50.981  0.00  0.00    +0.000 C 
ATOM      4  C   UNL     1      70.225  79.852  50.493  0.00  0.00    +0.000 C 
ATOM      5  C   UNL     1      70.604  79.380  49.933  0.00  0.00    +0.000 A 
ATOM      6  C   UNL     1      70.241  78.694  49.657  0.00  0.00    +0.000 A 
ATOM      7  C   UNL     1      70.621  78.222  49.097  0.00  0.00    +0.000 A 
ATOM      8  C   UNL     1      71.364  78.438  48.812  0.00  0.00    +0.000 A 
ATOM      9  C   UNL     1      71.728  79.125  49.088  0.00  0.00    +0.000 A 
ATOM     10  C   UNL     1      71.348  79.596  49.648  0.00  0.00    +0.000 A 
ENDROOT
TORSDOF 0
ENDMDL
MODEL 9
REMARK VINA RESULT:    -5.648     24.973     25.689
REMARK INTER + INTRA:          -5.648
REMARK INTER:                  -5.648
REMARK INTRA:                   0.000
REMARK UNBOUND:                 0.000
ROOT
REMARK  Name = tranylcypromine
REMARK                            x       y       z     vdW  Elec       q    Type
REMARK                         _______ _______ _______ _____ _____    ______ ____
ATOM      1  N   UNL     1      72.463  79.056  48.561  0.00  0.00    +0.000 NA
ATOM      2  C   UNL     1      71.683  78.865  48.753  0.00  0.00    +0.000 C 
ATOM      3  C   UNL     1      71.003  78.419  48.616  0.00  0.00    +0.000 C 
ATOM      4  C   UNL     1      71.014  78.980  49.221  0.00  0.00    +0.000 C 
ATOM      5  C   UNL     1      70.633  79.370  49.840  0.00  0.00    +0.000 A 
ATOM      6  C   UNL     1      69.854  79.179  50.031  0.00  0.00    +0.000 A 
ATOM      7  C   UNL     1      69.474  79.570  50.651  0.00  0.00    +0.000 A 
ATOM      8  C   UNL     1      69.873  80.151  51.079  0.00  0.00    +0.000 A 
ATOM      9  C   UNL     1      70.652  80.342  50.888  0.00  0.00    +0.000 A 
ATOM     10  C   UNL     1      71.033  79.952  50.269  0.00  0.00    +0.000 A 
ENDROOT
TORSDOF 0
ENDMDL
