MODEL 1
REMARK VINA RESULT:    -7.024      0.000      0.000
REMARK INTER + INTRA:          -7.024
REMARK INTER:                  -7.024
REMARK INTRA:                   0.000
REMARK UNBOUND:                 0.000
ROOT
REMARK  Name = tranexamic acid
REMARK                            x       y       z     vdW  Elec       q    Type
REMARK                         _______ _______ _______ _____ _____    ______ ____
ATOM      1  N   UNL     1      61.660  62.859  66.954  0.00  0.00    +0.000 NA
ATOM      2  C   UNL     1      61.163  62.372  66.509  0.00  0.00    +0.000 C 
ATOM      3  C   UNL     1      61.390  62.128  65.756  0.00  0.00    +0.000 C 
ATOM      4  C   UNL     1      60.893  61.642  65.312  0.00  0.00    +0.000 C 
ATOM      5  C   UNL     1      61.121  61.398  64.557  0.00  0.00    +0.000 C 
ATOM      6  C   UNL     1      61.845  61.639  64.247  0.00  0.00    +0.000 C 
ATOM      7  C   UNL     1      62.343  62.125  64.691  0.00  0.00    +0.000 C 
ATOM      8  C   UNL     1      62.116  62.370  65.445  0.00  0.00    +0.000 C 
ATOM      9  C   UNL     1      62.073  61.395  63.492  0.00  0.00    +0.000 C 
ATOM     10  O   UNL     1      61.576  60.909  63.048  0.00  0.00    +0.000 OA
ATOM     11  O   UNL     1      62.799  61.637  63.182  0.00  0.00    +0.000 OA
ENDROOT
TORSDOF 0
ENDMDL
MODEL 2
REMARK VINA RESULT:    -6.982      2.175      2.730
REMARK INTER + INTRA:          -6.982
REMARK INTER:                  -6.982
REMARK INTRA:                   0.000
REMARK UNBOUND:                 0.000
ROOT
REMARK  Name = tranexamic acid
REMARK                            x       y       z     vdW  Elec       q    Type
REMARK                         _______ _______ _______ _____ _____    ______ ____
ATOM      1  N   UNL     1      62.773  61.665  63.234  0.00  0.00    +0.000 NA
ATOM      2  C   UNL     1      62.059  61.424  63.571  0.00  0.00    +0.000 C 
ATOM      3  C   UNL     1      61.855  61.677  64.328  0.00  0.00    +0.000 C 
ATOM      4  C   UNL     1      61.142  61.436  64.666  0.00  0.00    +0.000 C 
ATOM      5  C   UNL     1      60.937  61.690  65.424  0.00  0.00    +0.000 C 
ATOM      6  C   UNL     1      61.446  62.184  65.844  0.00  0.00    +0.000 C 
ATOM      7  C   UNL     1      62.159  62.425  65.508  0.00  0.00    +0.000 C 
ATOM      8  C   UNL     1      62.364  62.172  64.750  0.00  0.00    +0.000 C 
ATOM      9  C   UNL     1      61.241  62.437  66.603  0.00  0.00    +0.000 C 
ATOM     10  O   UNL     1      60.528  62.196  66.940  0.00  0.00    +0.000 OA
ATOM     11  O   UNL     1      61.750  62.932  67.024  0.00  0.00    +0.000 OA
ENDROOT
TORSDOF 0
ENDMDL
MODEL 3
REMARK VINA RESULT:    -6.071      6.587      7.329
REMARK INTER + INTRA:          -6.071
REMARK INTER:                  -6.071
REMARK INTRA:                   0.000
REMARK UNBOUND:                 0.000
ROOT
REMARK  Name = tranexamic acid
REMARK                            x       y       z     vdW  Elec       q    Type
REMARK                         _______ _______ _______ _____ _____    ______ ____
ATOM      1  N   UNL     1      60.249  65.125  72.739  0.00  0.00    +0.000 NA
ATOM      2  C   UNL     1      60.861  64.585  72.866  0.00  0.00    +0.000 C 
ATOM      3  C   UNL     1      60.882  63.880  72.439  0.00  0.00    +0.000 C 
ATOM      4  C   UNL     1      61.493  63.340  72.565  0.00  0.00    +0.000 C 
ATOM      5  C   UNL     1      61.514  62.634  72.139  0.00  0.00    +0.000 C 
ATOM      6  C   UNL     1      60.926  62.469  71.586  0.00  0.00    +0.000 C 
ATOM      7  C   UNL     1      60.314  63.008  71.459  0.00  0.00    +0.000 C 
ATOM      8  C   UNL     1      60.293  63.714  71.886  0.00  0.00    +0.000 C 
ATOM      9  C   UNL     1      60.947  61.762  71.159  0.00  0.00    +0.000 C 
ATOM     10  O   UNL     1      61.558  61.223  71.285  0.00  0.00    +0.000 OA
ATOM     11  O   UNL     1      60.358  61.597  70.605  0.00  0.00    +0.000 OA
ENDROOT
TORSDOF 0
ENDMDL
MODEL 4
REMARK VINA RESULT:    -5.967      7.195      8.073
REMARK INTER + INTRA:          -5.967
REMARK INTER:                  -5.967
REMARK INTRA:                   0.000
REMARK UNBOUND:                 0.000
ROOT
REMARK  Name = tranexamic acid
REMARK                            x       y       z     vdW  Elec       q    Type
REMARK                         _______ _______ _______ _____ _____    ______ ____
ATOM      1  N   UNL     1      63.542  64.429  70.569  0.00  0.00    +0.000 NA
ATOM      2  C   UNL     1      63.750  64.955  69.968  0.00  0.00    +0.000 C 
ATOM      3  C   UNL     1      64.315  65.538  70.106  0.00  0.00    +0.000 C 
ATOM      4  C   UNL     1      64.523  66.063  69.506  0.00  0.00    +0.000 C 
ATOM      5  C   UNL     1      65.089  66.647  69.645  0.00  0.00    +0.000 C 
ATOM      6  C   UNL     1      65.448  66.705  70.385  0.00  0.00    +0.000 C 
ATOM      7  C   UNL     1      65.241  66.180  70.987  0.00  0.00    +0.000 C 
ATOM      8  C   UNL     1      64.675  65.596  70.848  0.00  0.00    +0.000 C 
ATOM      9  C   UNL     1      66.015  67.289  70.524  0.00  0.00    +0.000 C 
ATOM     10  O   UNL     1      66.222  67.814  69.923  0.00  0.00    +0.000 OA
ATOM     11  O   UNL     1      66.373  67.347  71.265  0.00  0.00    +0.000 OA
ENDROOT
TORSDOF 0
ENDMDL
MODEL 5
REMARK VINA RESULT:    -5.935      6.828      7.655
REMARK INTER + INTRA:          -5.935
REMARK INTER:                  -5.935
REMARK INTRA:                   0.000
REMARK UNBOUND:                 0.000
ROOT
REMARK  Name = tranexamic acid
REMARK                            x       y       z     vdW  Elec       q    Type
REMARK                         _______ _______ _______ _____ _____    ______ ____
ATOM      1  N   UNL     1      66.233  67.759  69.793  0.00  0.00    +0.000 NA
ATOM      2  C   UNL     1      65.956  67.356  70.458  0.00  0.00    +0.000 C 
ATOM      3  C   UNL     1      65.440  66.720  70.370  0.00  0.00    +0.000 C 
ATOM      4  C   UNL     1      65.163  66.317  71.034  0.00  0.00    +0.000 C 
ATOM      5  C   UNL     1      64.646  65.680  70.946  0.00  0.00    +0.000 C 
ATOM      6  C   UNL     1      64.405  65.447  70.193  0.00  0.00    +0.000 C 
ATOM      7  C   UNL     1      64.681  65.849  69.527  0.00  0.00    +0.000 C 
ATOM      8  C   UNL     1      65.198  66.486  69.616  0.00  0.00    +0.000 C 
ATOM      9  C   UNL     1      63.887  64.810  70.104  0.00  0.00    +0.000 C 
ATOM     10  O   UNL     1      63.611  64.407  70.769  0.00  0.00    +0.000 OA
ATOM     11  O   UNL     1      63.646  64.577  69.350  0.00  0.00    +0.000 OA
ENDROOT
TORSDOF 0
ENDMDL
MODEL 6
REMARK VINA RESULT:    -5.892      5.806      6.791
REMARK INTER + INTRA:          -5.892
REMARK INTER:                  -5.892
REMARK INTRA:                   0.000
REMARK UNBOUND:                 0.000
ROOT
REMARK  Name = tranexamic acid
REMARK                            x       y       z     vdW  Elec       q    Type
REMARK                         _______ _______ _______ _____ _____    ______ ____
ATOM      1  N   UNL     1      60.448  62.135  68.816  0.00  0.00    +0.000 NA
ATOM      2  C   UNL     1      60.485  61.684  69.506  0.00  0.00    +0.000 C 
ATOM      3  C   UNL     1      60.771  62.018  70.203  0.00  0.00    +0.000 C 
ATOM      4  C   UNL     1      60.808  61.568  70.893  0.00  0.00    +0.000 C 
ATOM      5  C   UNL     1      61.095  61.903  71.590  0.00  0.00    +0.000 C 
ATOM      6  C   UNL     1      61.345  62.688  71.597  0.00  0.00    +0.000 C 
ATOM      7  C   UNL     1      61.309  63.140  70.907  0.00  0.00    +0.000 C 
ATOM      8  C   UNL     1      61.022  62.805  70.210  0.00  0.00    +0.000 C 
ATOM      9  C   UNL     1      61.632  63.024  72.295  0.00  0.00    +0.000 C 
ATOM     10  O   UNL     1      61.668  62.573  72.984  0.00  0.00    +0.000 OA
ATOM     11  O   UNL     1      61.883  63.810  72.302  0.00  0.00    +0.000 OA
ENDROOT
TORSDOF 0
ENDMDL
MODEL 7
REMARK VINA RESULT:    -5.745      7.267      8.045
REMARK INTER + INTRA:          -5.745
REMARK INTER:                  -5.745
REMARK INTRA:                   0.000
REMARK UNBOUND:                 0.000
ROOT
REMARK  Name = tranexamic acid
REMARK                            x       y       z     vdW  Elec       q    Type
REMARK                         _______ _______ _______ _____ _____    ______ ____
ATOM      1  N   UNL     1      60.449  61.637  70.930  0.00  0.00    +0.000 NA
ATOM      2  C   UNL     1      61.088  61.991  71.314  0.00  0.00    +0.000 C 
ATOM      3  C   UNL     1      60.991  62.717  71.692  0.00  0.00    +0.000 C 
ATOM      4  C   UNL     1      61.629  63.071  72.076  0.00  0.00    +0.000 C 
ATOM      5  C   UNL     1      61.531  63.797  72.455  0.00  0.00    +0.000 C 
ATOM      6  C   UNL     1      60.795  64.169  72.450  0.00  0.00    +0.000 C 
ATOM      7  C   UNL     1      60.156  63.815  72.067  0.00  0.00    +0.000 C 
ATOM      8  C   UNL     1      60.254  63.089  71.688  0.00  0.00    +0.000 C 
ATOM      9  C   UNL     1      60.698  64.896  72.830  0.00  0.00    +0.000 C 
ATOM     10  O   UNL     1      61.336  65.250  73.213  0.00  0.00    +0.000 OA
ATOM     11  O   UNL     1      59.961  65.268  72.825  0.00  0.00    +0.000 OA
ENDROOT
TORSDOF 0
ENDMDL
MODEL 8
REMARK VINA RESULT:    -5.705     24.207     24.821
REMARK INTER + INTRA:          -5.705
REMARK INTER:                  -5.705
REMARK INTRA:                   0.000
REMARK UNBOUND:                 0.000
ROOT
REMARK  Name = tranexamic acid
REMARK                            x       y       z     vdW  Elec       q    Type
REMARK                         _______ _______ _______ _____ _____    ______ ____
ATOM      1  N   UNL     1      72.182  78.881  48.337  0.00  0.00    +0.000 NA
ATOM      2  C   UNL     1      71.490  78.520  48.604  0.00  0.00    +0.000 C 
ATOM      3  C   UNL     1      71.017  78.898  49.163  0.00  0.00    +0.000 C 
ATOM      4  C   UNL     1      70.325  78.537  49.431  0.00  0.00    +0.000 C 
ATOM      5  C   UNL     1      69.852  78.916  49.991  0.00  0.00    +0.000 C 
ATOM      6  C   UNL     1      70.071  79.656  50.283  0.00  0.00    +0.000 C 
ATOM      7  C   UNL     1      70.763  80.017  50.016  0.00  0.00    +0.000 C 
ATOM      8  C   UNL     1      71.236  79.638  49.456  0.00  0.00    +0.000 C 
ATOM      9  C   UNL     1      69.597  80.035  50.843  0.00  0.00    +0.000 C 
ATOM     10  O   UNL     1      68.906  79.674  51.110  0.00  0.00    +0.000 OA
ATOM     11  O   UNL     1      69.816  80.775  51.135  0.00  0.00    +0.000 OA
ENDROOT
TORSDOF 0
ENDMDL
MODEL 9
REMARK VINA RESULT:    -5.627     24.282     24.827
REMARK INTER + INTRA:          -5.627
REMARK INTER:                  -5.627
REMARK INTRA:                   0.000
REMARK UNBOUND:                 0.000
ROOT
REMARK  Name = tranexamic acid
REMARK                            x       y       z     vdW  Elec       q    Type
REMARK                         _______ _______ _______ _____ _____    ______ ____
ATOM      1  N   UNL     1      69.878  80.601  51.447  0.00  0.00    +0.000 NA
ATOM      2  C   UNL     1      69.647  79.928  51.028  0.00  0.00    +0.000 C 
ATOM      3  C   UNL     1      70.121  79.638  50.420  0.00  0.00    +0.000 C 
ATOM      4  C   UNL     1      69.890  78.965  50.002  0.00  0.00    +0.000 C 
ATOM      5  C   UNL     1      70.365  78.675  49.392  0.00  0.00    +0.000 C 
ATOM      6  C   UNL     1      71.070  79.057  49.202  0.00  0.00    +0.000 C 
ATOM      7  C   UNL     1      71.301  79.730  49.619  0.00  0.00    +0.000 C 
ATOM      8  C   UNL     1      70.827  80.020  50.229  0.00  0.00    +0.000 C 
ATOM      9  C   UNL     1      71.545  78.766  48.592  0.00  0.00    +0.000 C 
ATOM     10  O   UNL     1      71.314  78.094  48.174  0.00  0.00    +0.000 OA
ATOM     11  O   UNL     1      72.251  79.149  48.401  0.00  0.00    +0.000 OA
ENDROOT
TORSDOF 0
ENDMDL
