MODEL 1
REMARK VINA RESULT:   -12.034      0.000      0.000
REMARK INTER + INTRA:         -12.034
REMARK INTER:                 -12.034
REMARK INTRA:                   0.000
REMARK UNBOUND:                 0.000
ROOT
REMARK  Name = trelagliptin
REMARK                            x       y       z     vdW  Elec       q    Type
REMARK                         _______ _______ _______ _____ _____    ______ ____
ATOM      1  C   UNL     1      59.859  66.231  70.700  0.00  0.00    +0.000 C 
ATOM      2  N   UNL     1      59.953  65.522  70.287  0.00  0.00    +0.000 N 
ATOM      3  C   UNL     1      59.741  65.477  69.492  0.00  0.00    +0.000 A 
ATOM      4  O   UNL     1      59.435  66.139  69.108  0.00  0.00    +0.000 OA
ATOM      5  C   UNL     1      59.835  64.768  69.079  0.00  0.00    +0.000 A 
ATOM      6  C   UNL     1      60.142  64.105  69.462  0.00  0.00    +0.000 A 
ATOM      7  N   UNL     1      60.236  63.398  69.050  0.00  0.00    +0.000 N 
ATOM      8  C   UNL     1      60.542  62.734  69.434  0.00  0.00    +0.000 C 
ATOM      9  C   UNL     1      60.636  62.026  69.022  0.00  0.00    +0.000 C 
ATOM     10  C   UNL     1      60.424  61.981  68.225  0.00  0.00    +0.000 C 
ATOM     11  C   UNL     1      60.118  62.644  67.842  0.00  0.00    +0.000 C 
ATOM     12  N   UNL     1      59.906  62.599  67.047  0.00  0.00    +0.000 NA
ATOM     13  C   UNL     1      60.024  63.352  68.255  0.00  0.00    +0.000 C 
ATOM     14  N   UNL     1      60.354  64.150  70.259  0.00  0.00    +0.000 N 
ATOM     15  C   UNL     1      60.660  63.487  70.643  0.00  0.00    +0.000 C 
ATOM     16  C   UNL     1      60.872  63.532  71.439  0.00  0.00    +0.000 A 
ATOM     17  C   UNL     1      60.778  64.241  71.851  0.00  0.00    +0.000 A 
ATOM     18  C   UNL     1      60.990  64.286  72.646  0.00  0.00    +0.000 A 
ATOM     19  F   UNL     1      60.896  64.995  73.059  0.00  0.00    +0.000 F 
ATOM     20  C   UNL     1      61.297  63.623  73.031  0.00  0.00    +0.000 A 
ATOM     21  C   UNL     1      61.391  62.914  72.618  0.00  0.00    +0.000 A 
ATOM     22  C   UNL     1      61.178  62.869  71.821  0.00  0.00    +0.000 A 
ATOM     23  C   UNL     1      61.272  62.162  71.410  0.00  0.00    +0.000 C 
ATOM     24  N   UNL     1      61.367  61.453  70.997  0.00  0.00    +0.000 NA
ATOM     25  C   UNL     1      60.260  64.859  70.671  0.00  0.00    +0.000 A 
ATOM     26  O   UNL     1      60.472  64.903  71.468  0.00  0.00    +0.000 OA
ENDROOT
TORSDOF 0
ENDMDL
MODEL 2
REMARK VINA RESULT:   -11.906      1.428      2.904
REMARK INTER + INTRA:         -11.906
REMARK INTER:                 -11.906
REMARK INTRA:                   0.000
REMARK UNBOUND:                 0.000
ROOT
REMARK  Name = trelagliptin
REMARK                            x       y       z     vdW  Elec       q    Type
REMARK                         _______ _______ _______ _____ _____    ______ ____
ATOM      1  C   UNL     1      60.714  61.994  68.765  0.00  0.00    +0.000 C 
ATOM      2  N   UNL     1      60.545  62.754  69.041  0.00  0.00    +0.000 N 
ATOM      3  C   UNL     1      60.236  63.320  68.528  0.00  0.00    +0.000 A 
ATOM      4  O   UNL     1      60.095  63.128  67.738  0.00  0.00    +0.000 OA
ATOM      5  C   UNL     1      60.068  64.079  68.804  0.00  0.00    +0.000 A 
ATOM      6  C   UNL     1      60.208  64.272  69.593  0.00  0.00    +0.000 A 
ATOM      7  N   UNL     1      60.040  65.030  69.869  0.00  0.00    +0.000 N 
ATOM      8  C   UNL     1      60.181  65.223  70.659  0.00  0.00    +0.000 C 
ATOM      9  C   UNL     1      60.013  65.982  70.935  0.00  0.00    +0.000 C 
ATOM     10  C   UNL     1      59.703  66.548  70.421  0.00  0.00    +0.000 C 
ATOM     11  C   UNL     1      59.563  66.356  69.632  0.00  0.00    +0.000 C 
ATOM     12  N   UNL     1      59.253  66.922  69.118  0.00  0.00    +0.000 NA
ATOM     13  C   UNL     1      59.731  65.597  69.356  0.00  0.00    +0.000 C 
ATOM     14  N   UNL     1      60.518  63.705  70.107  0.00  0.00    +0.000 N 
ATOM     15  C   UNL     1      60.659  63.897  70.898  0.00  0.00    +0.000 C 
ATOM     16  C   UNL     1      60.968  63.330  71.411  0.00  0.00    +0.000 A 
ATOM     17  C   UNL     1      61.137  62.571  71.135  0.00  0.00    +0.000 A 
ATOM     18  C   UNL     1      61.446  62.005  71.648  0.00  0.00    +0.000 A 
ATOM     19  F   UNL     1      61.614  61.246  71.372  0.00  0.00    +0.000 F 
ATOM     20  C   UNL     1      61.587  62.197  72.438  0.00  0.00    +0.000 A 
ATOM     21  C   UNL     1      61.419  62.956  72.714  0.00  0.00    +0.000 A 
ATOM     22  C   UNL     1      61.109  63.523  72.200  0.00  0.00    +0.000 A 
ATOM     23  C   UNL     1      60.941  64.281  72.476  0.00  0.00    +0.000 C 
ATOM     24  N   UNL     1      60.772  65.040  72.752  0.00  0.00    +0.000 NA
ATOM     25  C   UNL     1      60.686  62.946  69.831  0.00  0.00    +0.000 A 
ATOM     26  O   UNL     1      60.996  62.379  70.345  0.00  0.00    +0.000 OA
ENDROOT
TORSDOF 0
ENDMDL
MODEL 3
REMARK VINA RESULT:   -11.348      2.943      4.598
REMARK INTER + INTRA:         -11.348
REMARK INTER:                 -11.348
REMARK INTRA:                   0.000
REMARK UNBOUND:                 0.000
ROOT
REMARK  Name = trelagliptin
REMARK                            x       y       z     vdW  Elec       q    Type
REMARK                         _______ _______ _______ _____ _____    ______ ____
ATOM      1  C   UNL     1      64.146  64.362  70.232  0.00  0.00    +0.000 C 
ATOM      2  N   UNL     1      63.788  64.928  70.717  0.00  0.00    +0.000 N 
ATOM      3  C   UNL     1      64.142  65.665  70.820  0.00  0.00    +0.000 A 
ATOM      4  O   UNL     1      64.852  65.839  70.439  0.00  0.00    +0.000 OA
ATOM      5  C   UNL     1      63.785  66.230  71.304  0.00  0.00    +0.000 A 
ATOM      6  C   UNL     1      63.074  66.057  71.686  0.00  0.00    +0.000 A 
ATOM      7  N   UNL     1      62.718  66.621  72.169  0.00  0.00    +0.000 N 
ATOM      8  C   UNL     1      62.006  66.447  72.551  0.00  0.00    +0.000 C 
ATOM      9  C   UNL     1      61.650  67.012  73.035  0.00  0.00    +0.000 C 
ATOM     10  C   UNL     1      62.004  67.750  73.138  0.00  0.00    +0.000 C 
ATOM     11  C   UNL     1      62.714  67.924  72.757  0.00  0.00    +0.000 C 
ATOM     12  N   UNL     1      63.067  68.661  72.859  0.00  0.00    +0.000 NA
ATOM     13  C   UNL     1      63.071  67.359  72.272  0.00  0.00    +0.000 C 
ATOM     14  N   UNL     1      62.720  65.318  71.583  0.00  0.00    +0.000 N 
ATOM     15  C   UNL     1      62.009  65.144  71.965  0.00  0.00    +0.000 C 
ATOM     16  C   UNL     1      61.656  64.406  71.862  0.00  0.00    +0.000 A 
ATOM     17  C   UNL     1      62.013  63.841  71.377  0.00  0.00    +0.000 A 
ATOM     18  C   UNL     1      61.660  63.104  71.275  0.00  0.00    +0.000 A 
ATOM     19  F   UNL     1      62.017  62.538  70.790  0.00  0.00    +0.000 F 
ATOM     20  C   UNL     1      60.949  62.929  71.656  0.00  0.00    +0.000 A 
ATOM     21  C   UNL     1      60.592  63.494  72.141  0.00  0.00    +0.000 A 
ATOM     22  C   UNL     1      60.946  64.233  72.243  0.00  0.00    +0.000 A 
ATOM     23  C   UNL     1      60.589  64.797  72.727  0.00  0.00    +0.000 C 
ATOM     24  N   UNL     1      60.232  65.361  73.211  0.00  0.00    +0.000 NA
ATOM     25  C   UNL     1      63.077  64.753  71.099  0.00  0.00    +0.000 A 
ATOM     26  O   UNL     1      62.723  64.015  70.996  0.00  0.00    +0.000 OA
ENDROOT
TORSDOF 0
ENDMDL
MODEL 4
REMARK VINA RESULT:   -11.194      3.371      4.128
REMARK INTER + INTRA:         -11.194
REMARK INTER:                 -11.194
REMARK INTRA:                   0.000
REMARK UNBOUND:                 0.000
ROOT
REMARK  Name = trelagliptin
REMARK                            x       y       z     vdW  Elec       q    Type
REMARK                         _______ _______ _______ _____ _____    ______ ____
ATOM      1  C   UNL     1      62.244  67.861  73.020  0.00  0.00    +0.000 C 
ATOM      2  N   UNL     1      62.162  67.113  72.680  0.00  0.00    +0.000 N 
ATOM      3  C   UNL     1      61.463  66.689  72.781  0.00  0.00    +0.000 A 
ATOM      4  O   UNL     1      60.845  67.010  73.222  0.00  0.00    +0.000 OA
ATOM      5  C   UNL     1      61.381  65.941  72.441  0.00  0.00    +0.000 A 
ATOM      6  C   UNL     1      61.998  65.619  71.999  0.00  0.00    +0.000 A 
ATOM      7  N   UNL     1      61.917  64.873  71.659  0.00  0.00    +0.000 N 
ATOM      8  C   UNL     1      62.535  64.551  71.217  0.00  0.00    +0.000 C 
ATOM      9  C   UNL     1      62.454  63.803  70.877  0.00  0.00    +0.000 C 
ATOM     10  C   UNL     1      61.753  63.379  70.979  0.00  0.00    +0.000 C 
ATOM     11  C   UNL     1      61.136  63.700  71.420  0.00  0.00    +0.000 C 
ATOM     12  N   UNL     1      60.437  63.275  71.522  0.00  0.00    +0.000 NA
ATOM     13  C   UNL     1      61.218  64.447  71.760  0.00  0.00    +0.000 C 
ATOM     14  N   UNL     1      62.699  66.045  71.898  0.00  0.00    +0.000 N 
ATOM     15  C   UNL     1      63.317  65.722  71.455  0.00  0.00    +0.000 C 
ATOM     16  C   UNL     1      64.016  66.148  71.354  0.00  0.00    +0.000 A 
ATOM     17  C   UNL     1      64.098  66.895  71.695  0.00  0.00    +0.000 A 
ATOM     18  C   UNL     1      64.797  67.320  71.593  0.00  0.00    +0.000 A 
ATOM     19  F   UNL     1      64.879  68.068  71.934  0.00  0.00    +0.000 F 
ATOM     20  C   UNL     1      65.416  66.998  71.151  0.00  0.00    +0.000 A 
ATOM     21  C   UNL     1      65.334  66.251  70.811  0.00  0.00    +0.000 A 
ATOM     22  C   UNL     1      64.634  65.826  70.913  0.00  0.00    +0.000 A 
ATOM     23  C   UNL     1      64.552  65.079  70.573  0.00  0.00    +0.000 C 
ATOM     24  N   UNL     1      64.470  64.332  70.232  0.00  0.00    +0.000 NA
ATOM     25  C   UNL     1      62.780  66.792  72.238  0.00  0.00    +0.000 A 
ATOM     26  O   UNL     1      63.481  67.217  72.136  0.00  0.00    +0.000 OA
ENDROOT
TORSDOF 0
ENDMDL
MODEL 5
REMARK VINA RESULT:   -11.147      1.630      3.334
REMARK INTER + INTRA:         -11.147
REMARK INTER:                 -11.147
REMARK INTRA:                   0.000
REMARK UNBOUND:                 0.000
ROOT
REMARK  Name = trelagliptin
REMARK                            x       y       z     vdW  Elec       q    Type
REMARK                         _______ _______ _______ _____ _____    ______ ____
ATOM      1  C   UNL     1      59.766  64.502  68.611  0.00  0.00    +0.000 C 
ATOM      2  N   UNL     1      60.054  64.744  69.347  0.00  0.00    +0.000 N 
ATOM      3  C   UNL     1      60.079  65.546  69.536  0.00  0.00    +0.000 A 
ATOM      4  O   UNL     1      59.818  66.106  68.991  0.00  0.00    +0.000 OA
ATOM      5  C   UNL     1      60.366  65.788  70.270  0.00  0.00    +0.000 A 
ATOM      6  C   UNL     1      60.628  65.228  70.816  0.00  0.00    +0.000 A 
ATOM      7  N   UNL     1      60.914  65.469  71.550  0.00  0.00    +0.000 N 
ATOM      8  C   UNL     1      61.176  64.908  72.097  0.00  0.00    +0.000 C 
ATOM      9  C   UNL     1      61.463  65.150  72.831  0.00  0.00    +0.000 C 
ATOM     10  C   UNL     1      61.488  65.953  73.020  0.00  0.00    +0.000 C 
ATOM     11  C   UNL     1      61.227  66.513  72.475  0.00  0.00    +0.000 C 
ATOM     12  N   UNL     1      61.252  67.315  72.663  0.00  0.00    +0.000 NA
ATOM     13  C   UNL     1      60.940  66.271  71.740  0.00  0.00    +0.000 C 
ATOM     14  N   UNL     1      60.602  64.424  70.627  0.00  0.00    +0.000 N 
ATOM     15  C   UNL     1      60.864  63.863  71.173  0.00  0.00    +0.000 C 
ATOM     16  C   UNL     1      60.838  63.061  70.984  0.00  0.00    +0.000 A 
ATOM     17  C   UNL     1      60.551  62.819  70.249  0.00  0.00    +0.000 A 
ATOM     18  C   UNL     1      60.526  62.017  70.060  0.00  0.00    +0.000 A 
ATOM     19  F   UNL     1      60.239  61.775  69.325  0.00  0.00    +0.000 F 
ATOM     20  C   UNL     1      60.787  61.455  70.606  0.00  0.00    +0.000 A 
ATOM     21  C   UNL     1      61.074  61.697  71.340  0.00  0.00    +0.000 A 
ATOM     22  C   UNL     1      61.100  62.501  71.530  0.00  0.00    +0.000 A 
ATOM     23  C   UNL     1      61.386  62.742  72.264  0.00  0.00    +0.000 C 
ATOM     24  N   UNL     1      61.673  62.984  72.998  0.00  0.00    +0.000 NA
ATOM     25  C   UNL     1      60.315  64.182  69.892  0.00  0.00    +0.000 A 
ATOM     26  O   UNL     1      60.290  63.379  69.704  0.00  0.00    +0.000 OA
ENDROOT
TORSDOF 0
ENDMDL
MODEL 6
REMARK VINA RESULT:   -11.109      1.495      3.329
REMARK INTER + INTRA:         -11.109
REMARK INTER:                 -11.109
REMARK INTRA:                   0.000
REMARK UNBOUND:                 0.000
ROOT
REMARK  Name = trelagliptin
REMARK                            x       y       z     vdW  Elec       q    Type
REMARK                         _______ _______ _______ _____ _____    ______ ____
ATOM      1  C   UNL     1      60.031  63.495  68.081  0.00  0.00    +0.000 C 
ATOM      2  N   UNL     1      60.286  63.277  68.836  0.00  0.00    +0.000 N 
ATOM      3  C   UNL     1      60.599  62.526  68.965  0.00  0.00    +0.000 A 
ATOM      4  O   UNL     1      60.657  61.991  68.340  0.00  0.00    +0.000 OA
ATOM      5  C   UNL     1      60.855  62.309  69.719  0.00  0.00    +0.000 A 
ATOM      6  C   UNL     1      60.797  62.843  70.344  0.00  0.00    +0.000 A 
ATOM      7  N   UNL     1      61.052  62.627  71.097  0.00  0.00    +0.000 N 
ATOM      8  C   UNL     1      60.994  63.162  71.723  0.00  0.00    +0.000 C 
ATOM      9  C   UNL     1      61.249  62.945  72.477  0.00  0.00    +0.000 C 
ATOM     10  C   UNL     1      61.562  62.192  72.605  0.00  0.00    +0.000 C 
ATOM     11  C   UNL     1      61.620  61.658  71.981  0.00  0.00    +0.000 C 
ATOM     12  N   UNL     1      61.933  60.906  72.109  0.00  0.00    +0.000 NA
ATOM     13  C   UNL     1      61.365  61.875  71.227  0.00  0.00    +0.000 C 
ATOM     14  N   UNL     1      60.483  63.596  70.215  0.00  0.00    +0.000 N 
ATOM     15  C   UNL     1      60.425  64.132  70.841  0.00  0.00    +0.000 C 
ATOM     16  C   UNL     1      60.112  64.884  70.711  0.00  0.00    +0.000 A 
ATOM     17  C   UNL     1      59.857  65.101  69.957  0.00  0.00    +0.000 A 
ATOM     18  C   UNL     1      59.544  65.853  69.829  0.00  0.00    +0.000 A 
ATOM     19  F   UNL     1      59.289  66.070  69.074  0.00  0.00    +0.000 F 
ATOM     20  C   UNL     1      59.486  66.389  70.454  0.00  0.00    +0.000 A 
ATOM     21  C   UNL     1      59.741  66.172  71.208  0.00  0.00    +0.000 A 
ATOM     22  C   UNL     1      60.055  65.419  71.337  0.00  0.00    +0.000 A 
ATOM     23  C   UNL     1      60.309  65.202  72.090  0.00  0.00    +0.000 C 
ATOM     24  N   UNL     1      60.565  64.985  72.844  0.00  0.00    +0.000 NA
ATOM     25  C   UNL     1      60.228  63.813  69.461  0.00  0.00    +0.000 A 
ATOM     26  O   UNL     1      59.915  64.566  69.333  0.00  0.00    +0.000 OA
ENDROOT
TORSDOF 0
ENDMDL
MODEL 7
REMARK VINA RESULT:   -10.987      2.827      3.926
REMARK INTER + INTRA:         -10.987
REMARK INTER:                 -10.987
REMARK INTRA:                   0.000
REMARK UNBOUND:                 0.000
ROOT
REMARK  Name = trelagliptin
REMARK                            x       y       z     vdW  Elec       q    Type
REMARK                         _______ _______ _______ _____ _____    ______ ____
ATOM      1  C   UNL     1      64.573  65.764  70.702  0.00  0.00    +0.000 C 
ATOM      2  N   UNL     1      63.850  65.404  70.875  0.00  0.00    +0.000 N 
ATOM      3  C   UNL     1      63.671  64.664  70.559  0.00  0.00    +0.000 A 
ATOM      4  O   UNL     1      64.214  64.283  70.070  0.00  0.00    +0.000 OA
ATOM      5  C   UNL     1      62.949  64.305  70.732  0.00  0.00    +0.000 A 
ATOM      6  C   UNL     1      62.405  64.686  71.221  0.00  0.00    +0.000 A 
ATOM      7  N   UNL     1      61.684  64.328  71.394  0.00  0.00    +0.000 N 
ATOM      8  C   UNL     1      61.139  64.709  71.884  0.00  0.00    +0.000 C 
ATOM      9  C   UNL     1      60.417  64.350  72.057  0.00  0.00    +0.000 C 
ATOM     10  C   UNL     1      60.239  63.610  71.740  0.00  0.00    +0.000 C 
ATOM     11  C   UNL     1      60.782  63.228  71.251  0.00  0.00    +0.000 C 
ATOM     12  N   UNL     1      60.603  62.488  70.935  0.00  0.00    +0.000 NA
ATOM     13  C   UNL     1      61.504  63.587  71.078  0.00  0.00    +0.000 C 
ATOM     14  N   UNL     1      62.584  65.427  71.538  0.00  0.00    +0.000 N 
ATOM     15  C   UNL     1      62.040  65.809  72.028  0.00  0.00    +0.000 C 
ATOM     16  C   UNL     1      62.219  66.550  72.344  0.00  0.00    +0.000 A 
ATOM     17  C   UNL     1      62.942  66.909  72.171  0.00  0.00    +0.000 A 
ATOM     18  C   UNL     1      63.120  67.649  72.487  0.00  0.00    +0.000 A 
ATOM     19  F   UNL     1      63.844  68.008  72.314  0.00  0.00    +0.000 F 
ATOM     20  C   UNL     1      62.577  68.031  72.977  0.00  0.00    +0.000 A 
ATOM     21  C   UNL     1      61.855  67.672  73.150  0.00  0.00    +0.000 A 
ATOM     22  C   UNL     1      61.676  66.931  72.833  0.00  0.00    +0.000 A 
ATOM     23  C   UNL     1      60.954  66.572  73.006  0.00  0.00    +0.000 C 
ATOM     24  N   UNL     1      60.232  66.213  73.179  0.00  0.00    +0.000 NA
ATOM     25  C   UNL     1      63.307  65.786  71.365  0.00  0.00    +0.000 A 
ATOM     26  O   UNL     1      63.485  66.527  71.682  0.00  0.00    +0.000 OA
ENDROOT
TORSDOF 0
ENDMDL
MODEL 8
REMARK VINA RESULT:   -10.980      2.587      4.130
REMARK INTER + INTRA:         -10.980
REMARK INTER:                 -10.980
REMARK INTRA:                   0.000
REMARK UNBOUND:                 0.000
ROOT
REMARK  Name = trelagliptin
REMARK                            x       y       z     vdW  Elec       q    Type
REMARK                         _______ _______ _______ _____ _____    ______ ____
ATOM      1  C   UNL     1      58.536  65.656  72.790  0.00  0.00    +0.000 C 
ATOM      2  N   UNL     1      59.310  65.935  72.712  0.00  0.00    +0.000 N 
ATOM      3  C   UNL     1      59.492  66.710  72.927  0.00  0.00    +0.000 A 
ATOM      4  O   UNL     1      58.903  67.206  73.221  0.00  0.00    +0.000 OA
ATOM      5  C   UNL     1      60.264  66.989  72.849  0.00  0.00    +0.000 A 
ATOM      6  C   UNL     1      60.855  66.493  72.556  0.00  0.00    +0.000 A 
ATOM      7  N   UNL     1      61.626  66.772  72.477  0.00  0.00    +0.000 N 
ATOM      8  C   UNL     1      62.217  66.275  72.183  0.00  0.00    +0.000 C 
ATOM      9  C   UNL     1      62.989  66.554  72.105  0.00  0.00    +0.000 C 
ATOM     10  C   UNL     1      63.171  67.330  72.321  0.00  0.00    +0.000 C 
ATOM     11  C   UNL     1      62.582  67.826  72.614  0.00  0.00    +0.000 C 
ATOM     12  N   UNL     1      62.764  68.600  72.829  0.00  0.00    +0.000 NA
ATOM     13  C   UNL     1      61.809  67.547  72.692  0.00  0.00    +0.000 C 
ATOM     14  N   UNL     1      60.672  65.717  72.340  0.00  0.00    +0.000 N 
ATOM     15  C   UNL     1      61.263  65.221  72.046  0.00  0.00    +0.000 C 
ATOM     16  C   UNL     1      61.080  64.446  71.831  0.00  0.00    +0.000 A 
ATOM     17  C   UNL     1      60.307  64.167  71.909  0.00  0.00    +0.000 A 
ATOM     18  C   UNL     1      60.125  63.392  71.694  0.00  0.00    +0.000 A 
ATOM     19  F   UNL     1      59.352  63.113  71.772  0.00  0.00    +0.000 F 
ATOM     20  C   UNL     1      60.715  62.895  71.400  0.00  0.00    +0.000 A 
ATOM     21  C   UNL     1      61.487  63.174  71.322  0.00  0.00    +0.000 A 
ATOM     22  C   UNL     1      61.670  63.950  71.538  0.00  0.00    +0.000 A 
ATOM     23  C   UNL     1      62.442  64.229  71.459  0.00  0.00    +0.000 C 
ATOM     24  N   UNL     1      63.214  64.508  71.381  0.00  0.00    +0.000 NA
ATOM     25  C   UNL     1      59.900  65.439  72.418  0.00  0.00    +0.000 A 
ATOM     26  O   UNL     1      59.718  64.663  72.203  0.00  0.00    +0.000 OA
ENDROOT
TORSDOF 0
ENDMDL
MODEL 9
REMARK VINA RESULT:   -10.760      2.557      3.717
REMARK INTER + INTRA:         -10.760
REMARK INTER:                 -10.760
REMARK INTRA:                   0.000
REMARK UNBOUND:                 0.000
ROOT
REMARK  Name = trelagliptin
REMARK                            x       y       z     vdW  Elec       q    Type
REMARK                         _______ _______ _______ _____ _____    ______ ____
ATOM      1  C   UNL     1      61.815  63.492  68.405  0.00  0.00    +0.000 C 
ATOM      2  N   UNL     1      61.503  63.796  69.107  0.00  0.00    +0.000 N 
ATOM      3  C   UNL     1      60.709  63.672  69.293  0.00  0.00    +0.000 A 
ATOM      4  O   UNL     1      60.227  63.245  68.778  0.00  0.00    +0.000 OA
ATOM      5  C   UNL     1      60.398  63.975  69.994  0.00  0.00    +0.000 A 
ATOM      6  C   UNL     1      60.880  64.402  70.509  0.00  0.00    +0.000 A 
ATOM      7  N   UNL     1      60.568  64.704  71.210  0.00  0.00    +0.000 N 
ATOM      8  C   UNL     1      61.051  65.131  71.726  0.00  0.00    +0.000 C 
ATOM      9  C   UNL     1      60.740  65.434  72.427  0.00  0.00    +0.000 C 
ATOM     10  C   UNL     1      59.945  65.310  72.612  0.00  0.00    +0.000 C 
ATOM     11  C   UNL     1      59.463  64.884  72.098  0.00  0.00    +0.000 C 
ATOM     12  N   UNL     1      58.669  64.760  72.283  0.00  0.00    +0.000 NA
ATOM     13  C   UNL     1      59.775  64.581  71.396  0.00  0.00    +0.000 C 
ATOM     14  N   UNL     1      61.675  64.525  70.323  0.00  0.00    +0.000 N 
ATOM     15  C   UNL     1      62.157  64.952  70.839  0.00  0.00    +0.000 C 
ATOM     16  C   UNL     1      62.951  65.076  70.653  0.00  0.00    +0.000 A 
ATOM     17  C   UNL     1      63.263  64.773  69.952  0.00  0.00    +0.000 A 
ATOM     18  C   UNL     1      64.057  64.897  69.766  0.00  0.00    +0.000 A 
ATOM     19  F   UNL     1      64.369  64.594  69.064  0.00  0.00    +0.000 F 
ATOM     20  C   UNL     1      64.540  65.324  70.281  0.00  0.00    +0.000 A 
ATOM     21  C   UNL     1      64.228  65.627  70.982  0.00  0.00    +0.000 A 
ATOM     22  C   UNL     1      63.433  65.503  71.169  0.00  0.00    +0.000 A 
ATOM     23  C   UNL     1      63.122  65.805  71.869  0.00  0.00    +0.000 C 
ATOM     24  N   UNL     1      62.811  66.108  72.570  0.00  0.00    +0.000 NA
ATOM     25  C   UNL     1      61.986  64.222  69.622  0.00  0.00    +0.000 A 
ATOM     26  O   UNL     1      62.781  64.347  69.437  0.00  0.00    +0.000 OA
ENDROOT
TORSDOF 0
ENDMDL
