MODEL 1
REMARK VINA RESULT:    -7.157      0.000      0.000
REMARK INTER + INTRA:          -7.157
REMARK INTER:                  -7.157
REMARK INTRA:                   0.000
REMARK UNBOUND:                 0.000
ROOT
REMARK  Name = treosulfan
REMARK                            x       y       z     vdW  Elec       q    Type
REMARK                         _______ _______ _______ _____ _____    ______ ____
ATOM      1  C   UNL     1      60.225  63.425  69.508  0.00  0.00    +0.000 C 
ATOM      2  S   UNL     1      60.711  63.339  68.848  0.00  0.00    +0.000 S 
ATOM      3  O   UNL     1      60.126  62.892  68.475  0.00  0.00    +0.000 OA
ATOM      4  O   UNL     1      61.296  63.785  69.220  0.00  0.00    +0.000 OA
ATOM      5  O   UNL     1      61.198  63.252  68.187  0.00  0.00    +0.000 OA
ATOM      6  C   UNL     1      60.934  62.823  67.534  0.00  0.00    +0.000 C 
ATOM      7  C   UNL     1      61.420  62.737  66.874  0.00  0.00    +0.000 C 
ATOM      8  O   UNL     1      62.170  63.080  66.865  0.00  0.00    +0.000 OA
ATOM      9  C   UNL     1      61.157  62.307  66.220  0.00  0.00    +0.000 C 
ATOM     10  O   UNL     1      60.407  61.964  66.228  0.00  0.00    +0.000 OA
ATOM     11  C   UNL     1      61.642  62.221  65.560  0.00  0.00    +0.000 C 
ATOM     12  O   UNL     1      61.379  61.792  64.907  0.00  0.00    +0.000 OA
ATOM     13  S   UNL     1      61.866  61.706  64.246  0.00  0.00    +0.000 S 
ATOM     14  C   UNL     1      62.352  61.619  63.585  0.00  0.00    +0.000 C 
ATOM     15  O   UNL     1      61.280  61.259  63.873  0.00  0.00    +0.000 OA
ATOM     16  O   UNL     1      62.451  62.152  64.618  0.00  0.00    +0.000 OA
ENDROOT
TORSDOF 0
ENDMDL
MODEL 2
REMARK VINA RESULT:    -7.147      1.285      1.995
REMARK INTER + INTRA:          -7.147
REMARK INTER:                  -7.147
REMARK INTRA:                   0.000
REMARK UNBOUND:                 0.000
ROOT
REMARK  Name = treosulfan
REMARK                            x       y       z     vdW  Elec       q    Type
REMARK                         _______ _______ _______ _____ _____    ______ ____
ATOM      1  C   UNL     1      60.545  63.237  71.302  0.00  0.00    +0.000 C 
ATOM      2  S   UNL     1      60.529  62.847  70.576  0.00  0.00    +0.000 S 
ATOM      3  O   UNL     1      60.972  63.456  70.239  0.00  0.00    +0.000 OA
ATOM      4  O   UNL     1      60.086  62.238  70.912  0.00  0.00    +0.000 OA
ATOM      5  O   UNL     1      60.513  62.457  69.849  0.00  0.00    +0.000 OA
ATOM      6  C   UNL     1      60.888  62.789  69.195  0.00  0.00    +0.000 C 
ATOM      7  C   UNL     1      60.872  62.399  68.468  0.00  0.00    +0.000 C 
ATOM      8  O   UNL     1      60.481  61.677  68.395  0.00  0.00    +0.000 OA
ATOM      9  C   UNL     1      61.248  62.732  67.812  0.00  0.00    +0.000 C 
ATOM     10  O   UNL     1      61.640  63.454  67.885  0.00  0.00    +0.000 OA
ATOM     11  C   UNL     1      61.232  62.342  67.086  0.00  0.00    +0.000 C 
ATOM     12  O   UNL     1      61.608  62.674  66.431  0.00  0.00    +0.000 OA
ATOM     13  S   UNL     1      61.592  62.284  65.704  0.00  0.00    +0.000 S 
ATOM     14  C   UNL     1      61.576  61.894  64.978  0.00  0.00    +0.000 C 
ATOM     15  O   UNL     1      62.035  62.893  65.368  0.00  0.00    +0.000 OA
ATOM     16  O   UNL     1      61.149  61.675  66.041  0.00  0.00    +0.000 OA
ENDROOT
TORSDOF 0
ENDMDL
MODEL 3
REMARK VINA RESULT:    -7.144      1.298      4.450
REMARK INTER + INTRA:          -7.144
REMARK INTER:                  -7.144
REMARK INTRA:                   0.000
REMARK UNBOUND:                 0.000
ROOT
REMARK  Name = treosulfan
REMARK                            x       y       z     vdW  Elec       q    Type
REMARK                         _______ _______ _______ _____ _____    ______ ____
ATOM      1  C   UNL     1      61.614  61.865  65.053  0.00  0.00    +0.000 C 
ATOM      2  S   UNL     1      61.605  62.272  65.771  0.00  0.00    +0.000 S 
ATOM      3  O   UNL     1      61.181  61.655  66.116  0.00  0.00    +0.000 OA
ATOM      4  O   UNL     1      62.030  62.890  65.425  0.00  0.00    +0.000 OA
ATOM      5  O   UNL     1      61.597  62.680  66.488  0.00  0.00    +0.000 OA
ATOM      6  C   UNL     1      61.225  62.349  67.145  0.00  0.00    +0.000 C 
ATOM      7  C   UNL     1      61.217  62.756  67.863  0.00  0.00    +0.000 C 
ATOM      8  O   UNL     1      61.580  63.494  67.923  0.00  0.00    +0.000 OA
ATOM      9  C   UNL     1      60.844  62.425  68.521  0.00  0.00    +0.000 C 
ATOM     10  O   UNL     1      60.481  61.687  68.461  0.00  0.00    +0.000 OA
ATOM     11  C   UNL     1      60.836  62.832  69.238  0.00  0.00    +0.000 C 
ATOM     12  O   UNL     1      60.464  62.502  69.896  0.00  0.00    +0.000 OA
ATOM     13  S   UNL     1      60.456  62.909  70.613  0.00  0.00    +0.000 S 
ATOM     14  C   UNL     1      60.447  63.316  71.330  0.00  0.00    +0.000 C 
ATOM     15  O   UNL     1      60.031  62.292  70.958  0.00  0.00    +0.000 OA
ATOM     16  O   UNL     1      60.880  63.526  70.268  0.00  0.00    +0.000 OA
ENDROOT
TORSDOF 0
ENDMDL
MODEL 4
REMARK VINA RESULT:    -6.583      4.332      5.919
REMARK INTER + INTRA:          -6.583
REMARK INTER:                  -6.583
REMARK INTRA:                   0.000
REMARK UNBOUND:                 0.000
ROOT
REMARK  Name = treosulfan
REMARK                            x       y       z     vdW  Elec       q    Type
REMARK                         _______ _______ _______ _____ _____    ______ ____
ATOM      1  C   UNL     1      66.422  67.440  70.875  0.00  0.00    +0.000 C 
ATOM      2  S   UNL     1      65.801  67.128  70.430  0.00  0.00    +0.000 S 
ATOM      3  O   UNL     1      65.673  66.556  71.010  0.00  0.00    +0.000 OA
ATOM      4  O   UNL     1      65.930  67.700  69.850  0.00  0.00    +0.000 OA
ATOM      5  O   UNL     1      65.180  66.816  69.985  0.00  0.00    +0.000 OA
ATOM      6  C   UNL     1      64.759  66.165  70.265  0.00  0.00    +0.000 C 
ATOM      7  C   UNL     1      64.139  65.853  69.820  0.00  0.00    +0.000 C 
ATOM      8  O   UNL     1      63.939  66.192  69.095  0.00  0.00    +0.000 OA
ATOM      9  C   UNL     1      63.716  65.201  70.100  0.00  0.00    +0.000 C 
ATOM     10  O   UNL     1      63.916  64.862  70.825  0.00  0.00    +0.000 OA
ATOM     11  C   UNL     1      63.096  64.890  69.655  0.00  0.00    +0.000 C 
ATOM     12  O   UNL     1      62.674  64.238  69.934  0.00  0.00    +0.000 OA
ATOM     13  S   UNL     1      62.054  63.926  69.489  0.00  0.00    +0.000 S 
ATOM     14  C   UNL     1      61.433  63.615  69.044  0.00  0.00    +0.000 C 
ATOM     15  O   UNL     1      61.925  63.354  70.069  0.00  0.00    +0.000 OA
ATOM     16  O   UNL     1      62.182  64.499  68.909  0.00  0.00    +0.000 OA
ENDROOT
TORSDOF 0
ENDMDL
MODEL 5
REMARK VINA RESULT:    -6.533      4.607      6.295
REMARK INTER + INTRA:          -6.533
REMARK INTER:                  -6.533
REMARK INTRA:                   0.000
REMARK UNBOUND:                 0.000
ROOT
REMARK  Name = treosulfan
REMARK                            x       y       z     vdW  Elec       q    Type
REMARK                         _______ _______ _______ _____ _____    ______ ____
ATOM      1  C   UNL     1      61.510  63.187  71.099  0.00  0.00    +0.000 C 
ATOM      2  S   UNL     1      62.052  63.656  70.690  0.00  0.00    +0.000 S 
ATOM      3  O   UNL     1      62.276  64.014  71.399  0.00  0.00    +0.000 OA
ATOM      4  O   UNL     1      61.827  63.298  69.982  0.00  0.00    +0.000 OA
ATOM      5  O   UNL     1      62.594  64.125  70.282  0.00  0.00    +0.000 OA
ATOM      6  C   UNL     1      63.059  64.669  70.691  0.00  0.00    +0.000 C 
ATOM      7  C   UNL     1      63.601  65.138  70.283  0.00  0.00    +0.000 C 
ATOM      8  O   UNL     1      63.678  65.063  69.465  0.00  0.00    +0.000 OA
ATOM      9  C   UNL     1      64.066  65.683  70.692  0.00  0.00    +0.000 C 
ATOM     10  O   UNL     1      63.989  65.758  71.510  0.00  0.00    +0.000 OA
ATOM     11  C   UNL     1      64.608  66.151  70.284  0.00  0.00    +0.000 C 
ATOM     12  O   UNL     1      65.073  66.696  70.693  0.00  0.00    +0.000 OA
ATOM     13  S   UNL     1      65.615  67.165  70.285  0.00  0.00    +0.000 S 
ATOM     14  C   UNL     1      66.157  67.634  69.876  0.00  0.00    +0.000 C 
ATOM     15  O   UNL     1      65.840  67.523  70.993  0.00  0.00    +0.000 OA
ATOM     16  O   UNL     1      65.391  66.807  69.576  0.00  0.00    +0.000 OA
ENDROOT
TORSDOF 0
ENDMDL
MODEL 6
REMARK VINA RESULT:    -6.453      2.894      4.805
REMARK INTER + INTRA:          -6.453
REMARK INTER:                  -6.453
REMARK INTRA:                   0.000
REMARK UNBOUND:                 0.000
ROOT
REMARK  Name = treosulfan
REMARK                            x       y       z     vdW  Elec       q    Type
REMARK                         _______ _______ _______ _____ _____    ______ ____
ATOM      1  C   UNL     1      58.735  67.182  72.378  0.00  0.00    +0.000 C 
ATOM      2  S   UNL     1      58.999  66.463  72.072  0.00  0.00    +0.000 S 
ATOM      3  O   UNL     1      59.077  66.808  71.327  0.00  0.00    +0.000 OA
ATOM      4  O   UNL     1      58.921  66.118  72.817  0.00  0.00    +0.000 OA
ATOM      5  O   UNL     1      59.263  65.743  71.767  0.00  0.00    +0.000 OA
ATOM      6  C   UNL     1      59.463  65.683  70.969  0.00  0.00    +0.000 C 
ATOM      7  C   UNL     1      59.727  64.963  70.664  0.00  0.00    +0.000 C 
ATOM      8  O   UNL     1      59.791  64.304  71.156  0.00  0.00    +0.000 OA
ATOM      9  C   UNL     1      59.926  64.902  69.865  0.00  0.00    +0.000 C 
ATOM     10  O   UNL     1      59.862  65.561  69.373  0.00  0.00    +0.000 OA
ATOM     11  C   UNL     1      60.190  64.183  69.560  0.00  0.00    +0.000 C 
ATOM     12  O   UNL     1      60.390  64.122  68.762  0.00  0.00    +0.000 OA
ATOM     13  S   UNL     1      60.654  63.403  68.456  0.00  0.00    +0.000 S 
ATOM     14  C   UNL     1      60.918  62.683  68.151  0.00  0.00    +0.000 C 
ATOM     15  O   UNL     1      60.732  63.748  67.711  0.00  0.00    +0.000 OA
ATOM     16  O   UNL     1      60.576  63.057  69.201  0.00  0.00    +0.000 OA
ENDROOT
TORSDOF 0
ENDMDL
MODEL 7
REMARK VINA RESULT:    -6.364      1.883      2.806
REMARK INTER + INTRA:          -6.364
REMARK INTER:                  -6.364
REMARK INTRA:                   0.000
REMARK UNBOUND:                 0.000
ROOT
REMARK  Name = treosulfan
REMARK                            x       y       z     vdW  Elec       q    Type
REMARK                         _______ _______ _______ _____ _____    ______ ____
ATOM      1  C   UNL     1      59.761  66.450  70.715  0.00  0.00    +0.000 C 
ATOM      2  S   UNL     1      60.243  66.026  70.197  0.00  0.00    +0.000 S 
ATOM      3  O   UNL     1      59.590  65.586  69.950  0.00  0.00    +0.000 OA
ATOM      4  O   UNL     1      60.896  66.465  70.444  0.00  0.00    +0.000 OA
ATOM      5  O   UNL     1      60.725  65.601  69.679  0.00  0.00    +0.000 OA
ATOM      6  C   UNL     1      60.400  65.009  69.207  0.00  0.00    +0.000 C 
ATOM      7  C   UNL     1      60.882  64.584  68.689  0.00  0.00    +0.000 C 
ATOM      8  O   UNL     1      61.688  64.752  68.643  0.00  0.00    +0.000 OA
ATOM      9  C   UNL     1      60.557  63.990  68.215  0.00  0.00    +0.000 C 
ATOM     10  O   UNL     1      59.751  63.822  68.261  0.00  0.00    +0.000 OA
ATOM     11  C   UNL     1      61.038  63.566  67.698  0.00  0.00    +0.000 C 
ATOM     12  O   UNL     1      60.715  62.973  67.225  0.00  0.00    +0.000 OA
ATOM     13  S   UNL     1      61.196  62.549  66.707  0.00  0.00    +0.000 S 
ATOM     14  C   UNL     1      61.678  62.124  66.189  0.00  0.00    +0.000 C 
ATOM     15  O   UNL     1      60.543  62.109  66.460  0.00  0.00    +0.000 OA
ATOM     16  O   UNL     1      61.849  62.989  66.954  0.00  0.00    +0.000 OA
ENDROOT
TORSDOF 0
ENDMDL
MODEL 8
REMARK VINA RESULT:    -6.208     13.355     14.153
REMARK INTER + INTRA:          -6.208
REMARK INTER:                  -6.208
REMARK INTRA:                   0.000
REMARK UNBOUND:                 0.000
ROOT
REMARK  Name = treosulfan
REMARK                            x       y       z     vdW  Elec       q    Type
REMARK                         _______ _______ _______ _____ _____    ______ ____
ATOM      1  C   UNL     1      62.468  58.412  52.617  0.00  0.00    +0.000 C 
ATOM      2  S   UNL     1      62.811  59.051  53.010  0.00  0.00    +0.000 S 
ATOM      3  O   UNL     1      63.195  59.272  52.314  0.00  0.00    +0.000 OA
ATOM      4  O   UNL     1      62.427  58.830  53.706  0.00  0.00    +0.000 OA
ATOM      5  O   UNL     1      63.154  59.691  53.402  0.00  0.00    +0.000 OA
ATOM      6  C   UNL     1      63.658  60.201  52.996  0.00  0.00    +0.000 C 
ATOM      7  C   UNL     1      64.001  60.841  53.388  0.00  0.00    +0.000 C 
ATOM      8  O   UNL     1      63.841  60.969  54.187  0.00  0.00    +0.000 OA
ATOM      9  C   UNL     1      64.506  61.352  52.981  0.00  0.00    +0.000 C 
ATOM     10  O   UNL     1      64.667  61.223  52.182  0.00  0.00    +0.000 OA
ATOM     11  C   UNL     1      64.849  61.991  53.373  0.00  0.00    +0.000 C 
ATOM     12  O   UNL     1      65.353  62.502  52.967  0.00  0.00    +0.000 OA
ATOM     13  S   UNL     1      65.696  63.141  53.360  0.00  0.00    +0.000 S 
ATOM     14  C   UNL     1      66.040  63.781  53.752  0.00  0.00    +0.000 C 
ATOM     15  O   UNL     1      66.080  63.362  52.664  0.00  0.00    +0.000 OA
ATOM     16  O   UNL     1      65.313  62.920  54.055  0.00  0.00    +0.000 OA
ENDROOT
TORSDOF 0
ENDMDL
MODEL 9
REMARK VINA RESULT:    -6.204     13.336     14.019
REMARK INTER + INTRA:          -6.204
REMARK INTER:                  -6.204
REMARK INTRA:                   0.000
REMARK UNBOUND:                 0.000
ROOT
REMARK  Name = treosulfan
REMARK                            x       y       z     vdW  Elec       q    Type
REMARK                         _______ _______ _______ _____ _____    ______ ____
ATOM      1  C   UNL     1      66.099  63.770  53.734  0.00  0.00    +0.000 C 
ATOM      2  S   UNL     1      65.731  63.142  53.346  0.00  0.00    +0.000 S 
ATOM      3  O   UNL     1      65.371  62.916  54.053  0.00  0.00    +0.000 OA
ATOM      4  O   UNL     1      66.091  63.368  52.639  0.00  0.00    +0.000 OA
ATOM      5  O   UNL     1      65.363  62.513  52.958  0.00  0.00    +0.000 OA
ATOM      6  C   UNL     1      64.868  62.004  53.377  0.00  0.00    +0.000 C 
ATOM      7  C   UNL     1      64.501  61.376  52.989  0.00  0.00    +0.000 C 
ATOM      8  O   UNL     1      64.628  61.257  52.182  0.00  0.00    +0.000 OA
ATOM      9  C   UNL     1      64.005  60.865  53.407  0.00  0.00    +0.000 C 
ATOM     10  O   UNL     1      63.877  60.984  54.214  0.00  0.00    +0.000 OA
ATOM     11  C   UNL     1      63.637  60.238  53.020  0.00  0.00    +0.000 C 
ATOM     12  O   UNL     1      63.142  59.728  53.438  0.00  0.00    +0.000 OA
ATOM     13  S   UNL     1      62.774  59.099  53.050  0.00  0.00    +0.000 S 
ATOM     14  C   UNL     1      62.406  58.471  52.662  0.00  0.00    +0.000 C 
ATOM     15  O   UNL     1      62.414  58.873  53.757  0.00  0.00    +0.000 OA
ATOM     16  O   UNL     1      63.134  59.325  52.343  0.00  0.00    +0.000 OA
ENDROOT
TORSDOF 0
ENDMDL
