MODEL 1
REMARK VINA RESULT:   -11.645      0.000      0.000
REMARK INTER + INTRA:         -11.645
REMARK INTER:                 -11.645
REMARK INTRA:                   0.000
REMARK UNBOUND:                 0.000
ROOT
REMARK  Name = tretoquinol
REMARK                            x       y       z     vdW  Elec       q    Type
REMARK                         _______ _______ _______ _____ _____    ______ ____
ATOM      1  C   UNL     1      60.025  62.395  67.604  0.00  0.00    +0.000 C 
ATOM      2  O   UNL     1      60.326  61.949  68.229  0.00  0.00    +0.000 OA
ATOM      3  C   UNL     1      60.470  62.306  68.958  0.00  0.00    +0.000 A 
ATOM      4  C   UNL     1      60.770  61.859  69.584  0.00  0.00    +0.000 A 
ATOM      5  C   UNL     1      60.915  62.216  70.313  0.00  0.00    +0.000 A 
ATOM      6  C   UNL     1      61.215  61.770  70.939  0.00  0.00    +0.000 C 
ATOM      7  C   UNL     1      61.359  62.127  71.668  0.00  0.00    +0.000 C 
ATOM      8  N   UNL     1      61.659  61.681  72.293  0.00  0.00    +0.000 NA
ATOM      9  C   UNL     1      61.804  62.039  73.024  0.00  0.00    +0.000 C 
ATOM     10  C   UNL     1      61.648  62.842  73.128  0.00  0.00    +0.000 C 
ATOM     11  C   UNL     1      61.348  63.288  72.503  0.00  0.00    +0.000 A 
ATOM     12  C   UNL     1      61.192  64.091  72.606  0.00  0.00    +0.000 A 
ATOM     13  C   UNL     1      60.891  64.538  71.981  0.00  0.00    +0.000 A 
ATOM     14  O   UNL     1      60.735  65.341  72.085  0.00  0.00    +0.000 OA
ATOM     15  C   UNL     1      60.747  64.180  71.251  0.00  0.00    +0.000 A 
ATOM     16  O   UNL     1      60.447  64.627  70.625  0.00  0.00    +0.000 OA
ATOM     17  C   UNL     1      60.903  63.377  71.147  0.00  0.00    +0.000 A 
ATOM     18  C   UNL     1      61.203  62.930  71.772  0.00  0.00    +0.000 A 
ATOM     19  C   UNL     1      60.759  63.020  70.417  0.00  0.00    +0.000 A 
ATOM     20  C   UNL     1      60.458  63.466  69.792  0.00  0.00    +0.000 A 
ATOM     21  O   UNL     1      60.302  64.270  69.896  0.00  0.00    +0.000 OA
ATOM     22  C   UNL     1      60.002  64.716  69.270  0.00  0.00    +0.000 C 
ATOM     23  C   UNL     1      60.314  63.109  69.063  0.00  0.00    +0.000 A 
ATOM     24  O   UNL     1      60.014  63.556  68.437  0.00  0.00    +0.000 OA
ATOM     25  C   UNL     1      59.858  64.359  68.541  0.00  0.00    +0.000 C 
ENDROOT
TORSDOF 0
ENDMDL
MODEL 2
REMARK VINA RESULT:   -11.496      1.456      3.263
REMARK INTER + INTRA:         -11.496
REMARK INTER:                 -11.496
REMARK INTRA:                   0.000
REMARK UNBOUND:                 0.000
ROOT
REMARK  Name = tretoquinol
REMARK                            x       y       z     vdW  Elec       q    Type
REMARK                         _______ _______ _______ _____ _____    ______ ____
ATOM      1  C   UNL     1      58.989  67.045  72.043  0.00  0.00    +0.000 C 
ATOM      2  O   UNL     1      59.133  66.270  72.284  0.00  0.00    +0.000 OA
ATOM      3  C   UNL     1      59.385  65.707  71.736  0.00  0.00    +0.000 A 
ATOM      4  C   UNL     1      59.530  64.931  71.978  0.00  0.00    +0.000 A 
ATOM      5  C   UNL     1      59.781  64.369  71.431  0.00  0.00    +0.000 A 
ATOM      6  C   UNL     1      59.926  63.593  71.672  0.00  0.00    +0.000 C 
ATOM      7  C   UNL     1      60.178  63.031  71.124  0.00  0.00    +0.000 C 
ATOM      8  N   UNL     1      60.322  62.256  71.366  0.00  0.00    +0.000 NA
ATOM      9  C   UNL     1      60.574  61.692  70.817  0.00  0.00    +0.000 C 
ATOM     10  C   UNL     1      60.682  61.905  70.028  0.00  0.00    +0.000 C 
ATOM     11  C   UNL     1      60.538  62.680  69.786  0.00  0.00    +0.000 A 
ATOM     12  C   UNL     1      60.645  62.893  68.996  0.00  0.00    +0.000 A 
ATOM     13  C   UNL     1      60.501  63.668  68.754  0.00  0.00    +0.000 A 
ATOM     14  O   UNL     1      60.608  63.881  67.964  0.00  0.00    +0.000 OA
ATOM     15  C   UNL     1      60.249  64.231  69.303  0.00  0.00    +0.000 A 
ATOM     16  O   UNL     1      60.104  65.007  69.061  0.00  0.00    +0.000 OA
ATOM     17  C   UNL     1      60.141  64.019  70.092  0.00  0.00    +0.000 A 
ATOM     18  C   UNL     1      60.285  63.243  70.335  0.00  0.00    +0.000 A 
ATOM     19  C   UNL     1      59.889  64.582  70.640  0.00  0.00    +0.000 A 
ATOM     20  C   UNL     1      59.745  65.357  70.399  0.00  0.00    +0.000 A 
ATOM     21  O   UNL     1      59.853  65.570  69.609  0.00  0.00    +0.000 OA
ATOM     22  C   UNL     1      59.708  66.345  69.367  0.00  0.00    +0.000 C 
ATOM     23  C   UNL     1      59.493  65.919  70.947  0.00  0.00    +0.000 A 
ATOM     24  O   UNL     1      59.349  66.695  70.705  0.00  0.00    +0.000 OA
ATOM     25  C   UNL     1      59.456  66.907  69.915  0.00  0.00    +0.000 C 
ENDROOT
TORSDOF 0
ENDMDL
MODEL 3
REMARK VINA RESULT:   -11.298      1.789      3.576
REMARK INTER + INTRA:         -11.298
REMARK INTER:                 -11.298
REMARK INTRA:                   0.000
REMARK UNBOUND:                 0.000
ROOT
REMARK  Name = tretoquinol
REMARK                            x       y       z     vdW  Elec       q    Type
REMARK                         _______ _______ _______ _____ _____    ______ ____
ATOM      1  C   UNL     1      59.363  66.883  70.927  0.00  0.00    +0.000 C 
ATOM      2  O   UNL     1      59.552  66.588  70.181  0.00  0.00    +0.000 OA
ATOM      3  C   UNL     1      59.732  65.788  70.087  0.00  0.00    +0.000 A 
ATOM      4  C   UNL     1      59.922  65.492  69.340  0.00  0.00    +0.000 A 
ATOM      5  C   UNL     1      60.101  64.693  69.246  0.00  0.00    +0.000 A 
ATOM      6  C   UNL     1      60.291  64.398  68.500  0.00  0.00    +0.000 C 
ATOM      7  C   UNL     1      60.470  63.598  68.406  0.00  0.00    +0.000 C 
ATOM      8  N   UNL     1      60.660  63.303  67.660  0.00  0.00    +0.000 NA
ATOM      9  C   UNL     1      60.840  62.502  67.566  0.00  0.00    +0.000 C 
ATOM     10  C   UNL     1      60.830  61.998  68.218  0.00  0.00    +0.000 C 
ATOM     11  C   UNL     1      60.640  62.293  68.964  0.00  0.00    +0.000 A 
ATOM     12  C   UNL     1      60.630  61.789  69.618  0.00  0.00    +0.000 A 
ATOM     13  C   UNL     1      60.440  62.084  70.364  0.00  0.00    +0.000 A 
ATOM     14  O   UNL     1      60.430  61.580  71.017  0.00  0.00    +0.000 OA
ATOM     15  C   UNL     1      60.260  62.885  70.458  0.00  0.00    +0.000 A 
ATOM     16  O   UNL     1      60.071  63.180  71.205  0.00  0.00    +0.000 OA
ATOM     17  C   UNL     1      60.271  63.389  69.805  0.00  0.00    +0.000 A 
ATOM     18  C   UNL     1      60.460  63.094  69.058  0.00  0.00    +0.000 A 
ATOM     19  C   UNL     1      60.091  64.189  69.899  0.00  0.00    +0.000 A 
ATOM     20  C   UNL     1      59.901  64.484  70.645  0.00  0.00    +0.000 A 
ATOM     21  O   UNL     1      59.891  63.979  71.299  0.00  0.00    +0.000 OA
ATOM     22  C   UNL     1      59.701  64.275  72.045  0.00  0.00    +0.000 C 
ATOM     23  C   UNL     1      59.722  65.283  70.739  0.00  0.00    +0.000 A 
ATOM     24  O   UNL     1      59.532  65.579  71.486  0.00  0.00    +0.000 OA
ATOM     25  C   UNL     1      59.522  65.074  72.139  0.00  0.00    +0.000 C 
ENDROOT
TORSDOF 0
ENDMDL
MODEL 4
REMARK VINA RESULT:   -11.059      3.820      4.510
REMARK INTER + INTRA:         -11.059
REMARK INTER:                 -11.059
REMARK INTRA:                   0.000
REMARK UNBOUND:                 0.000
ROOT
REMARK  Name = tretoquinol
REMARK                            x       y       z     vdW  Elec       q    Type
REMARK                         _______ _______ _______ _____ _____    ______ ____
ATOM      1  C   UNL     1      61.897  63.538  69.517  0.00  0.00    +0.000 C 
ATOM      2  O   UNL     1      62.605  63.880  69.268  0.00  0.00    +0.000 OA
ATOM      3  C   UNL     1      62.938  64.500  69.698  0.00  0.00    +0.000 A 
ATOM      4  C   UNL     1      63.646  64.842  69.448  0.00  0.00    +0.000 A 
ATOM      5  C   UNL     1      63.979  65.462  69.878  0.00  0.00    +0.000 A 
ATOM      6  C   UNL     1      64.687  65.804  69.629  0.00  0.00    +0.000 C 
ATOM      7  C   UNL     1      65.020  66.424  70.059  0.00  0.00    +0.000 C 
ATOM      8  N   UNL     1      65.727  66.766  69.810  0.00  0.00    +0.000 NA
ATOM      9  C   UNL     1      66.061  67.386  70.241  0.00  0.00    +0.000 C 
ATOM     10  C   UNL     1      65.686  67.664  70.921  0.00  0.00    +0.000 C 
ATOM     11  C   UNL     1      64.979  67.322  71.170  0.00  0.00    +0.000 A 
ATOM     12  C   UNL     1      64.604  67.599  71.851  0.00  0.00    +0.000 A 
ATOM     13  C   UNL     1      63.896  67.258  72.101  0.00  0.00    +0.000 A 
ATOM     14  O   UNL     1      63.521  67.535  72.781  0.00  0.00    +0.000 OA
ATOM     15  C   UNL     1      63.563  66.637  71.670  0.00  0.00    +0.000 A 
ATOM     16  O   UNL     1      62.855  66.295  71.920  0.00  0.00    +0.000 OA
ATOM     17  C   UNL     1      63.937  66.360  70.990  0.00  0.00    +0.000 A 
ATOM     18  C   UNL     1      64.645  66.701  70.739  0.00  0.00    +0.000 A 
ATOM     19  C   UNL     1      63.604  65.740  70.559  0.00  0.00    +0.000 A 
ATOM     20  C   UNL     1      62.896  65.397  70.809  0.00  0.00    +0.000 A 
ATOM     21  O   UNL     1      62.521  65.675  71.490  0.00  0.00    +0.000 OA
ATOM     22  C   UNL     1      61.814  65.333  71.739  0.00  0.00    +0.000 C 
ATOM     23  C   UNL     1      62.564  64.778  70.379  0.00  0.00    +0.000 A 
ATOM     24  O   UNL     1      61.855  64.436  70.628  0.00  0.00    +0.000 OA
ATOM     25  C   UNL     1      61.481  64.714  71.309  0.00  0.00    +0.000 C 
ENDROOT
TORSDOF 0
ENDMDL
MODEL 5
REMARK VINA RESULT:   -11.055      3.505      4.763
REMARK INTER + INTRA:         -11.055
REMARK INTER:                 -11.055
REMARK INTRA:                   0.000
REMARK UNBOUND:                 0.000
ROOT
REMARK  Name = tretoquinol
REMARK                            x       y       z     vdW  Elec       q    Type
REMARK                         _______ _______ _______ _____ _____    ______ ____
ATOM      1  C   UNL     1      60.791  64.625  72.851  0.00  0.00    +0.000 C 
ATOM      2  O   UNL     1      61.313  65.249  72.980  0.00  0.00    +0.000 OA
ATOM      3  C   UNL     1      61.950  65.366  72.469  0.00  0.00    +0.000 A 
ATOM      4  C   UNL     1      62.474  65.991  72.597  0.00  0.00    +0.000 A 
ATOM      5  C   UNL     1      63.110  66.107  72.087  0.00  0.00    +0.000 A 
ATOM      6  C   UNL     1      63.633  66.732  72.214  0.00  0.00    +0.000 C 
ATOM      7  C   UNL     1      64.270  66.848  71.703  0.00  0.00    +0.000 C 
ATOM      8  N   UNL     1      64.793  67.473  71.832  0.00  0.00    +0.000 NA
ATOM      9  C   UNL     1      65.431  67.589  71.320  0.00  0.00    +0.000 C 
ATOM     10  C   UNL     1      65.545  67.081  70.681  0.00  0.00    +0.000 C 
ATOM     11  C   UNL     1      65.022  66.456  70.553  0.00  0.00    +0.000 A 
ATOM     12  C   UNL     1      65.136  65.947  69.914  0.00  0.00    +0.000 A 
ATOM     13  C   UNL     1      64.614  65.322  69.785  0.00  0.00    +0.000 A 
ATOM     14  O   UNL     1      64.727  64.813  69.146  0.00  0.00    +0.000 OA
ATOM     15  C   UNL     1      63.976  65.206  70.297  0.00  0.00    +0.000 A 
ATOM     16  O   UNL     1      63.453  64.580  70.168  0.00  0.00    +0.000 OA
ATOM     17  C   UNL     1      63.862  65.714  70.936  0.00  0.00    +0.000 A 
ATOM     18  C   UNL     1      64.384  66.340  71.065  0.00  0.00    +0.000 A 
ATOM     19  C   UNL     1      63.224  65.598  71.447  0.00  0.00    +0.000 A 
ATOM     20  C   UNL     1      62.701  64.973  71.319  0.00  0.00    +0.000 A 
ATOM     21  O   UNL     1      62.816  64.464  70.679  0.00  0.00    +0.000 OA
ATOM     22  C   UNL     1      62.293  63.839  70.551  0.00  0.00    +0.000 C 
ATOM     23  C   UNL     1      62.065  64.857  71.829  0.00  0.00    +0.000 A 
ATOM     24  O   UNL     1      61.541  64.232  71.701  0.00  0.00    +0.000 OA
ATOM     25  C   UNL     1      61.656  63.723  71.062  0.00  0.00    +0.000 C 
ENDROOT
TORSDOF 0
ENDMDL
MODEL 6
REMARK VINA RESULT:   -10.943      2.094      3.310
REMARK INTER + INTRA:         -10.943
REMARK INTER:                 -10.943
REMARK INTRA:                   0.000
REMARK UNBOUND:                 0.000
ROOT
REMARK  Name = tretoquinol
REMARK                            x       y       z     vdW  Elec       q    Type
REMARK                         _______ _______ _______ _____ _____    ______ ____
ATOM      1  C   UNL     1      60.501  61.911  70.615  0.00  0.00    +0.000 C 
ATOM      2  O   UNL     1      60.264  62.436  71.204  0.00  0.00    +0.000 OA
ATOM      3  C   UNL     1      60.131  63.230  71.019  0.00  0.00    +0.000 A 
ATOM      4  C   UNL     1      59.894  63.756  71.609  0.00  0.00    +0.000 A 
ATOM      5  C   UNL     1      59.761  64.549  71.425  0.00  0.00    +0.000 A 
ATOM      6  C   UNL     1      59.524  65.075  72.014  0.00  0.00    +0.000 C 
ATOM      7  C   UNL     1      59.392  65.869  71.830  0.00  0.00    +0.000 C 
ATOM      8  N   UNL     1      59.155  66.394  72.419  0.00  0.00    +0.000 NA
ATOM      9  C   UNL     1      59.022  67.188  72.234  0.00  0.00    +0.000 C 
ATOM     10  C   UNL     1      59.127  67.455  71.461  0.00  0.00    +0.000 C 
ATOM     11  C   UNL     1      59.364  66.929  70.872  0.00  0.00    +0.000 A 
ATOM     12  C   UNL     1      59.469  67.195  70.098  0.00  0.00    +0.000 A 
ATOM     13  C   UNL     1      59.706  66.670  69.509  0.00  0.00    +0.000 A 
ATOM     14  O   UNL     1      59.811  66.936  68.735  0.00  0.00    +0.000 OA
ATOM     15  C   UNL     1      59.839  65.876  69.694  0.00  0.00    +0.000 A 
ATOM     16  O   UNL     1      60.076  65.350  69.104  0.00  0.00    +0.000 OA
ATOM     17  C   UNL     1      59.734  65.609  70.467  0.00  0.00    +0.000 A 
ATOM     18  C   UNL     1      59.497  66.135  71.057  0.00  0.00    +0.000 A 
ATOM     19  C   UNL     1      59.866  64.816  70.651  0.00  0.00    +0.000 A 
ATOM     20  C   UNL     1      60.104  64.289  70.062  0.00  0.00    +0.000 A 
ATOM     21  O   UNL     1      60.209  64.556  69.288  0.00  0.00    +0.000 OA
ATOM     22  C   UNL     1      60.446  64.030  68.699  0.00  0.00    +0.000 C 
ATOM     23  C   UNL     1      60.236  63.497  70.246  0.00  0.00    +0.000 A 
ATOM     24  O   UNL     1      60.473  62.970  69.657  0.00  0.00    +0.000 OA
ATOM     25  C   UNL     1      60.578  63.237  68.883  0.00  0.00    +0.000 C 
ENDROOT
TORSDOF 0
ENDMDL
MODEL 7
REMARK VINA RESULT:   -10.910      2.748      4.082
REMARK INTER + INTRA:         -10.910
REMARK INTER:                 -10.910
REMARK INTRA:                   0.000
REMARK UNBOUND:                 0.000
ROOT
REMARK  Name = tretoquinol
REMARK                            x       y       z     vdW  Elec       q    Type
REMARK                         _______ _______ _______ _____ _____    ______ ____
ATOM      1  C   UNL     1      65.237  66.699  70.950  0.00  0.00    +0.000 C 
ATOM      2  O   UNL     1      64.601  66.808  71.463  0.00  0.00    +0.000 OA
ATOM      3  C   UNL     1      63.992  66.252  71.488  0.00  0.00    +0.000 A 
ATOM      4  C   UNL     1      63.354  66.360  72.001  0.00  0.00    +0.000 A 
ATOM      5  C   UNL     1      62.746  65.805  72.026  0.00  0.00    +0.000 A 
ATOM      6  C   UNL     1      62.109  65.913  72.539  0.00  0.00    +0.000 C 
ATOM      7  C   UNL     1      61.500  65.357  72.564  0.00  0.00    +0.000 C 
ATOM      8  N   UNL     1      60.864  65.466  73.077  0.00  0.00    +0.000 NA
ATOM      9  C   UNL     1      60.254  64.909  73.102  0.00  0.00    +0.000 C 
ATOM     10  C   UNL     1      60.282  64.245  72.614  0.00  0.00    +0.000 C 
ATOM     11  C   UNL     1      60.918  64.136  72.101  0.00  0.00    +0.000 A 
ATOM     12  C   UNL     1      60.947  63.472  71.612  0.00  0.00    +0.000 A 
ATOM     13  C   UNL     1      61.583  63.363  71.100  0.00  0.00    +0.000 A 
ATOM     14  O   UNL     1      61.611  62.699  70.611  0.00  0.00    +0.000 OA
ATOM     15  C   UNL     1      62.193  63.920  71.075  0.00  0.00    +0.000 A 
ATOM     16  O   UNL     1      62.829  63.811  70.561  0.00  0.00    +0.000 OA
ATOM     17  C   UNL     1      62.165  64.584  71.563  0.00  0.00    +0.000 A 
ATOM     18  C   UNL     1      61.528  64.693  72.076  0.00  0.00    +0.000 A 
ATOM     19  C   UNL     1      62.774  65.140  71.538  0.00  0.00    +0.000 A 
ATOM     20  C   UNL     1      63.411  65.032  71.025  0.00  0.00    +0.000 A 
ATOM     21  O   UNL     1      63.439  64.367  70.536  0.00  0.00    +0.000 OA
ATOM     22  C   UNL     1      64.075  64.259  70.023  0.00  0.00    +0.000 C 
ATOM     23  C   UNL     1      64.019  65.587  71.000  0.00  0.00    +0.000 A 
ATOM     24  O   UNL     1      64.657  65.479  70.486  0.00  0.00    +0.000 OA
ATOM     25  C   UNL     1      64.684  64.814  69.999  0.00  0.00    +0.000 C 
ENDROOT
TORSDOF 0
ENDMDL
MODEL 8
REMARK VINA RESULT:   -10.858      2.444      3.671
REMARK INTER + INTRA:         -10.858
REMARK INTER:                 -10.858
REMARK INTRA:                   0.000
REMARK UNBOUND:                 0.000
ROOT
REMARK  Name = tretoquinol
REMARK                            x       y       z     vdW  Elec       q    Type
REMARK                         _______ _______ _______ _____ _____    ______ ____
ATOM      1  C   UNL     1      65.149  66.365  70.631  0.00  0.00    +0.000 C 
ATOM      2  O   UNL     1      64.807  65.651  70.401  0.00  0.00    +0.000 OA
ATOM      3  C   UNL     1      64.094  65.408  70.739  0.00  0.00    +0.000 A 
ATOM      4  C   UNL     1      63.751  64.693  70.509  0.00  0.00    +0.000 A 
ATOM      5  C   UNL     1      63.039  64.451  70.845  0.00  0.00    +0.000 A 
ATOM      6  C   UNL     1      62.696  63.736  70.616  0.00  0.00    +0.000 C 
ATOM      7  C   UNL     1      61.983  63.493  70.953  0.00  0.00    +0.000 C 
ATOM      8  N   UNL     1      61.641  62.780  70.723  0.00  0.00    +0.000 NA
ATOM      9  C   UNL     1      60.928  62.536  71.061  0.00  0.00    +0.000 C 
ATOM     10  C   UNL     1      60.558  63.007  71.628  0.00  0.00    +0.000 C 
ATOM     11  C   UNL     1      60.901  63.721  71.858  0.00  0.00    +0.000 A 
ATOM     12  C   UNL     1      60.531  64.193  72.425  0.00  0.00    +0.000 A 
ATOM     13  C   UNL     1      60.874  64.907  72.655  0.00  0.00    +0.000 A 
ATOM     14  O   UNL     1      60.504  65.378  73.222  0.00  0.00    +0.000 OA
ATOM     15  C   UNL     1      61.587  65.150  72.317  0.00  0.00    +0.000 A 
ATOM     16  O   UNL     1      61.929  65.865  72.548  0.00  0.00    +0.000 OA
ATOM     17  C   UNL     1      61.956  64.679  71.751  0.00  0.00    +0.000 A 
ATOM     18  C   UNL     1      61.614  63.964  71.520  0.00  0.00    +0.000 A 
ATOM     19  C   UNL     1      62.669  64.922  71.413  0.00  0.00    +0.000 A 
ATOM     20  C   UNL     1      63.012  65.636  71.643  0.00  0.00    +0.000 A 
ATOM     21  O   UNL     1      62.642  66.108  72.211  0.00  0.00    +0.000 OA
ATOM     22  C   UNL     1      62.985  66.822  72.440  0.00  0.00    +0.000 C 
ATOM     23  C   UNL     1      63.724  65.879  71.306  0.00  0.00    +0.000 A 
ATOM     24  O   UNL     1      64.067  66.594  71.536  0.00  0.00    +0.000 OA
ATOM     25  C   UNL     1      63.697  67.064  72.103  0.00  0.00    +0.000 C 
ENDROOT
TORSDOF 0
ENDMDL
MODEL 9
REMARK VINA RESULT:   -10.694      1.717      2.322
REMARK INTER + INTRA:         -10.694
REMARK INTER:                 -10.694
REMARK INTRA:                   0.000
REMARK UNBOUND:                 0.000
ROOT
REMARK  Name = tretoquinol
REMARK                            x       y       z     vdW  Elec       q    Type
REMARK                         _______ _______ _______ _____ _____    ______ ____
ATOM      1  C   UNL     1      61.254  62.777  67.441  0.00  0.00    +0.000 C 
ATOM      2  O   UNL     1      61.638  63.434  67.757  0.00  0.00    +0.000 OA
ATOM      3  C   UNL     1      61.647  63.553  68.573  0.00  0.00    +0.000 A 
ATOM      4  C   UNL     1      62.032  64.212  68.890  0.00  0.00    +0.000 A 
ATOM      5  C   UNL     1      62.041  64.331  69.705  0.00  0.00    +0.000 A 
ATOM      6  C   UNL     1      62.425  64.988  70.022  0.00  0.00    +0.000 C 
ATOM      7  C   UNL     1      62.434  65.108  70.839  0.00  0.00    +0.000 C 
ATOM      8  N   UNL     1      62.818  65.765  71.155  0.00  0.00    +0.000 NA
ATOM      9  C   UNL     1      62.827  65.884  71.972  0.00  0.00    +0.000 C 
ATOM     10  C   UNL     1      62.452  65.346  72.471  0.00  0.00    +0.000 C 
ATOM     11  C   UNL     1      62.068  64.689  72.155  0.00  0.00    +0.000 A 
ATOM     12  C   UNL     1      61.692  64.150  72.654  0.00  0.00    +0.000 A 
ATOM     13  C   UNL     1      61.308  63.493  72.338  0.00  0.00    +0.000 A 
ATOM     14  O   UNL     1      60.932  62.954  72.838  0.00  0.00    +0.000 OA
ATOM     15  C   UNL     1      61.299  63.373  71.521  0.00  0.00    +0.000 A 
ATOM     16  O   UNL     1      60.914  62.715  71.205  0.00  0.00    +0.000 OA
ATOM     17  C   UNL     1      61.674  63.911  71.022  0.00  0.00    +0.000 A 
ATOM     18  C   UNL     1      62.059  64.570  71.338  0.00  0.00    +0.000 A 
ATOM     19  C   UNL     1      61.665  63.792  70.206  0.00  0.00    +0.000 A 
ATOM     20  C   UNL     1      61.281  63.135  69.888  0.00  0.00    +0.000 A 
ATOM     21  O   UNL     1      60.905  62.596  70.389  0.00  0.00    +0.000 OA
ATOM     22  C   UNL     1      60.521  61.938  70.072  0.00  0.00    +0.000 C 
ATOM     23  C   UNL     1      61.272  63.015  69.073  0.00  0.00    +0.000 A 
ATOM     24  O   UNL     1      60.887  62.357  68.756  0.00  0.00    +0.000 OA
ATOM     25  C   UNL     1      60.512  61.819  69.256  0.00  0.00    +0.000 C 
ENDROOT
TORSDOF 0
ENDMDL
