MODEL 1
REMARK VINA RESULT:   -12.345      0.000      0.000
REMARK INTER + INTRA:         -12.345
REMARK INTER:                 -12.345
REMARK INTRA:                   0.000
REMARK UNBOUND:                 0.000
ROOT
REMARK  Name = tretinoin
REMARK                            x       y       z     vdW  Elec       q    Type
REMARK                         _______ _______ _______ _____ _____    ______ ____
ATOM      1  C   UNL     1      59.777  62.369  67.602  0.00  0.00    +0.000 C 
ATOM      2  C   UNL     1      60.487  62.454  67.192  0.00  0.00    +0.000 C 
ATOM      3  C   UNL     1      60.568  62.137  66.434  0.00  0.00    +0.000 C 
ATOM      4  C   UNL     1      61.278  62.222  66.024  0.00  0.00    +0.000 C 
ATOM      5  C   UNL     1      61.358  61.905  65.267  0.00  0.00    +0.000 C 
ATOM      6  C   UNL     1      62.069  61.991  64.857  0.00  0.00    +0.000 C 
ATOM      7  C   UNL     1      62.699  62.394  65.204  0.00  0.00    +0.000 C 
ATOM      8  C   UNL     1      62.149  61.674  64.100  0.00  0.00    +0.000 C 
ATOM      9  C   UNL     1      61.518  61.271  63.753  0.00  0.00    +0.000 C 
ATOM     10  C   UNL     1      60.808  61.185  64.163  0.00  0.00    +0.000 C 
ATOM     11  C   UNL     1      60.727  61.503  64.921  0.00  0.00    +0.000 C 
ATOM     12  C   UNL     1      59.951  61.231  64.983  0.00  0.00    +0.000 C 
ATOM     13  C   UNL     1      60.249  61.622  65.582  0.00  0.00    +0.000 C 
ATOM     14  C   UNL     1      61.118  62.857  67.539  0.00  0.00    +0.000 C 
ATOM     15  C   UNL     1      61.038  63.175  68.297  0.00  0.00    +0.000 C 
ATOM     16  C   UNL     1      61.669  63.578  68.643  0.00  0.00    +0.000 C 
ATOM     17  C   UNL     1      61.588  63.895  69.401  0.00  0.00    +0.000 C 
ATOM     18  C   UNL     1      60.878  63.809  69.811  0.00  0.00    +0.000 C 
ATOM     19  C   UNL     1      62.219  64.298  69.748  0.00  0.00    +0.000 C 
ATOM     20  C   UNL     1      62.139  64.616  70.506  0.00  0.00    +0.000 C 
ATOM     21  O   UNL     1      61.428  64.530  70.916  0.00  0.00    +0.000 OA
ATOM     22  O   UNL     1      62.770  65.019  70.852  0.00  0.00    +0.000 OA
ENDROOT
TORSDOF 0
ENDMDL
MODEL 2
REMARK VINA RESULT:   -12.220      2.460      5.334
REMARK INTER + INTRA:         -12.220
REMARK INTER:                 -12.220
REMARK INTRA:                   0.000
REMARK UNBOUND:                 0.000
ROOT
REMARK  Name = tretinoin
REMARK                            x       y       z     vdW  Elec       q    Type
REMARK                         _______ _______ _______ _____ _____    ______ ____
ATOM      1  C   UNL     1      60.028  61.655  68.447  0.00  0.00    +0.000 C 
ATOM      2  C   UNL     1      60.643  62.152  68.681  0.00  0.00    +0.000 C 
ATOM      3  C   UNL     1      60.713  62.377  69.473  0.00  0.00    +0.000 C 
ATOM      4  C   UNL     1      61.328  62.874  69.707  0.00  0.00    +0.000 C 
ATOM      5  C   UNL     1      61.398  63.099  70.497  0.00  0.00    +0.000 C 
ATOM      6  C   UNL     1      62.013  63.597  70.732  0.00  0.00    +0.000 C 
ATOM      7  C   UNL     1      62.558  63.869  70.176  0.00  0.00    +0.000 C 
ATOM      8  C   UNL     1      62.083  63.821  71.522  0.00  0.00    +0.000 C 
ATOM      9  C   UNL     1      61.538  63.549  72.079  0.00  0.00    +0.000 C 
ATOM     10  C   UNL     1      60.923  63.052  71.844  0.00  0.00    +0.000 C 
ATOM     11  C   UNL     1      60.853  62.827  71.053  0.00  0.00    +0.000 C 
ATOM     12  C   UNL     1      60.181  62.375  71.212  0.00  0.00    +0.000 C 
ATOM     13  C   UNL     1      60.439  62.400  70.481  0.00  0.00    +0.000 C 
ATOM     14  C   UNL     1      61.188  62.425  68.126  0.00  0.00    +0.000 C 
ATOM     15  C   UNL     1      61.118  62.200  67.335  0.00  0.00    +0.000 C 
ATOM     16  C   UNL     1      61.664  62.473  66.779  0.00  0.00    +0.000 C 
ATOM     17  C   UNL     1      61.593  62.247  65.988  0.00  0.00    +0.000 C 
ATOM     18  C   UNL     1      60.978  61.750  65.753  0.00  0.00    +0.000 C 
ATOM     19  C   UNL     1      62.139  62.520  65.432  0.00  0.00    +0.000 C 
ATOM     20  C   UNL     1      62.068  62.295  64.641  0.00  0.00    +0.000 C 
ATOM     21  O   UNL     1      61.453  61.798  64.406  0.00  0.00    +0.000 OA
ATOM     22  O   UNL     1      62.614  62.568  64.085  0.00  0.00    +0.000 OA
ENDROOT
TORSDOF 0
ENDMDL
MODEL 3
REMARK VINA RESULT:   -11.735      4.385      6.651
REMARK INTER + INTRA:         -11.735
REMARK INTER:                 -11.735
REMARK INTRA:                   0.000
REMARK UNBOUND:                 0.000
ROOT
REMARK  Name = tretinoin
REMARK                            x       y       z     vdW  Elec       q    Type
REMARK                         _______ _______ _______ _____ _____    ______ ____
ATOM      1  C   UNL     1      62.528  65.639  72.468  0.00  0.00    +0.000 C 
ATOM      2  C   UNL     1      62.948  65.554  71.763  0.00  0.00    +0.000 C 
ATOM      3  C   UNL     1      63.578  66.060  71.595  0.00  0.00    +0.000 C 
ATOM      4  C   UNL     1      63.998  65.975  70.891  0.00  0.00    +0.000 C 
ATOM      5  C   UNL     1      64.627  66.480  70.721  0.00  0.00    +0.000 C 
ATOM      6  C   UNL     1      65.047  66.395  70.016  0.00  0.00    +0.000 C 
ATOM      7  C   UNL     1      64.838  65.805  69.481  0.00  0.00    +0.000 C 
ATOM      8  C   UNL     1      65.677  66.900  69.848  0.00  0.00    +0.000 C 
ATOM      9  C   UNL     1      65.887  67.491  70.384  0.00  0.00    +0.000 C 
ATOM     10  C   UNL     1      65.467  67.576  71.089  0.00  0.00    +0.000 C 
ATOM     11  C   UNL     1      64.837  67.070  71.258  0.00  0.00    +0.000 C 
ATOM     12  C   UNL     1      64.694  67.443  71.980  0.00  0.00    +0.000 C 
ATOM     13  C   UNL     1      64.239  66.848  71.781  0.00  0.00    +0.000 C 
ATOM     14  C   UNL     1      62.738  64.964  71.227  0.00  0.00    +0.000 C 
ATOM     15  C   UNL     1      62.108  64.458  71.395  0.00  0.00    +0.000 C 
ATOM     16  C   UNL     1      61.898  63.868  70.859  0.00  0.00    +0.000 C 
ATOM     17  C   UNL     1      61.268  63.362  71.028  0.00  0.00    +0.000 C 
ATOM     18  C   UNL     1      60.848  63.447  71.733  0.00  0.00    +0.000 C 
ATOM     19  C   UNL     1      61.059  62.772  70.491  0.00  0.00    +0.000 C 
ATOM     20  C   UNL     1      60.428  62.266  70.660  0.00  0.00    +0.000 C 
ATOM     21  O   UNL     1      60.008  62.351  71.365  0.00  0.00    +0.000 OA
ATOM     22  O   UNL     1      60.219  61.676  70.123  0.00  0.00    +0.000 OA
ENDROOT
TORSDOF 0
ENDMDL
MODEL 4
REMARK VINA RESULT:   -11.471      1.190      2.320
REMARK INTER + INTRA:         -11.471
REMARK INTER:                 -11.471
REMARK INTRA:                   0.000
REMARK UNBOUND:                 0.000
ROOT
REMARK  Name = tretinoin
REMARK                            x       y       z     vdW  Elec       q    Type
REMARK                         _______ _______ _______ _____ _____    ______ ____
ATOM      1  C   UNL     1      62.102  63.630  68.525  0.00  0.00    +0.000 C 
ATOM      2  C   UNL     1      61.369  63.352  68.267  0.00  0.00    +0.000 C 
ATOM      3  C   UNL     1      61.303  62.982  67.531  0.00  0.00    +0.000 C 
ATOM      4  C   UNL     1      60.572  62.705  67.273  0.00  0.00    +0.000 C 
ATOM      5  C   UNL     1      60.506  62.335  66.539  0.00  0.00    +0.000 C 
ATOM      6  C   UNL     1      59.773  62.057  66.281  0.00  0.00    +0.000 C 
ATOM      7  C   UNL     1      59.106  62.149  66.757  0.00  0.00    +0.000 C 
ATOM      8  C   UNL     1      59.708  61.688  65.546  0.00  0.00    +0.000 C 
ATOM      9  C   UNL     1      60.375  61.596  65.069  0.00  0.00    +0.000 C 
ATOM     10  C   UNL     1      61.107  61.874  65.328  0.00  0.00    +0.000 C 
ATOM     11  C   UNL     1      61.173  62.244  66.063  0.00  0.00    +0.000 C 
ATOM     12  C   UNL     1      61.983  62.364  65.962  0.00  0.00    +0.000 C 
ATOM     13  C   UNL     1      61.656  62.614  66.619  0.00  0.00    +0.000 C 
ATOM     14  C   UNL     1      60.701  63.443  68.743  0.00  0.00    +0.000 C 
ATOM     15  C   UNL     1      60.767  63.813  69.478  0.00  0.00    +0.000 C 
ATOM     16  C   UNL     1      60.100  63.904  69.954  0.00  0.00    +0.000 C 
ATOM     17  C   UNL     1      60.165  64.274  70.689  0.00  0.00    +0.000 C 
ATOM     18  C   UNL     1      60.898  64.552  70.948  0.00  0.00    +0.000 C 
ATOM     19  C   UNL     1      59.498  64.365  71.165  0.00  0.00    +0.000 C 
ATOM     20  C   UNL     1      59.563  64.735  71.901  0.00  0.00    +0.000 C 
ATOM     21  O   UNL     1      60.296  65.013  72.159  0.00  0.00    +0.000 OA
ATOM     22  O   UNL     1      58.896  64.826  72.377  0.00  0.00    +0.000 OA
ENDROOT
TORSDOF 0
ENDMDL
MODEL 5
REMARK VINA RESULT:   -11.345      4.135      5.834
REMARK INTER + INTRA:         -11.345
REMARK INTER:                 -11.345
REMARK INTRA:                   0.000
REMARK UNBOUND:                 0.000
ROOT
REMARK  Name = tretinoin
REMARK                            x       y       z     vdW  Elec       q    Type
REMARK                         _______ _______ _______ _____ _____    ______ ____
ATOM      1  C   UNL     1      62.419  65.584  72.665  0.00  0.00    +0.000 C 
ATOM      2  C   UNL     1      62.408  65.121  71.982  0.00  0.00    +0.000 C 
ATOM      3  C   UNL     1      61.849  64.519  71.900  0.00  0.00    +0.000 C 
ATOM      4  C   UNL     1      61.838  64.057  71.218  0.00  0.00    +0.000 C 
ATOM      5  C   UNL     1      61.279  63.456  71.135  0.00  0.00    +0.000 C 
ATOM      6  C   UNL     1      61.268  62.993  70.452  0.00  0.00    +0.000 C 
ATOM      7  C   UNL     1      61.816  63.131  69.852  0.00  0.00    +0.000 C 
ATOM      8  C   UNL     1      60.710  62.392  70.370  0.00  0.00    +0.000 C 
ATOM      9  C   UNL     1      60.161  62.254  70.971  0.00  0.00    +0.000 C 
ATOM     10  C   UNL     1      60.172  62.716  71.654  0.00  0.00    +0.000 C 
ATOM     11  C   UNL     1      60.731  63.318  71.736  0.00  0.00    +0.000 C 
ATOM     12  C   UNL     1      60.440  63.526  72.479  0.00  0.00    +0.000 C 
ATOM     13  C   UNL     1      61.041  63.927  72.198  0.00  0.00    +0.000 C 
ATOM     14  C   UNL     1      62.956  65.258  71.381  0.00  0.00    +0.000 C 
ATOM     15  C   UNL     1      63.516  65.860  71.463  0.00  0.00    +0.000 C 
ATOM     16  C   UNL     1      64.064  65.998  70.862  0.00  0.00    +0.000 C 
ATOM     17  C   UNL     1      64.623  66.599  70.945  0.00  0.00    +0.000 C 
ATOM     18  C   UNL     1      64.634  67.062  71.627  0.00  0.00    +0.000 C 
ATOM     19  C   UNL     1      65.171  66.737  70.344  0.00  0.00    +0.000 C 
ATOM     20  C   UNL     1      65.731  67.339  70.426  0.00  0.00    +0.000 C 
ATOM     21  O   UNL     1      65.741  67.802  71.109  0.00  0.00    +0.000 OA
ATOM     22  O   UNL     1      66.279  67.476  69.825  0.00  0.00    +0.000 OA
ENDROOT
TORSDOF 0
ENDMDL
MODEL 6
REMARK VINA RESULT:   -10.505      5.274      6.835
REMARK INTER + INTRA:         -10.505
REMARK INTER:                 -10.505
REMARK INTRA:                   0.000
REMARK UNBOUND:                 0.000
ROOT
REMARK  Name = tretinoin
REMARK                            x       y       z     vdW  Elec       q    Type
REMARK                         _______ _______ _______ _____ _____    ______ ____
ATOM      1  C   UNL     1      62.338  64.290  70.997  0.00  0.00    +0.000 C 
ATOM      2  C   UNL     1      62.529  65.028  71.312  0.00  0.00    +0.000 C 
ATOM      3  C   UNL     1      63.291  65.332  71.220  0.00  0.00    +0.000 C 
ATOM      4  C   UNL     1      63.481  66.069  71.535  0.00  0.00    +0.000 C 
ATOM      5  C   UNL     1      64.242  66.374  71.443  0.00  0.00    +0.000 C 
ATOM      6  C   UNL     1      64.433  67.112  71.759  0.00  0.00    +0.000 C 
ATOM      7  C   UNL     1      63.862  67.546  72.166  0.00  0.00    +0.000 C 
ATOM      8  C   UNL     1      65.194  67.415  71.666  0.00  0.00    +0.000 C 
ATOM      9  C   UNL     1      65.765  66.982  71.259  0.00  0.00    +0.000 C 
ATOM     10  C   UNL     1      65.575  66.243  70.944  0.00  0.00    +0.000 C 
ATOM     11  C   UNL     1      64.812  65.939  71.036  0.00  0.00    +0.000 C 
ATOM     12  C   UNL     1      65.006  65.252  70.622  0.00  0.00    +0.000 C 
ATOM     13  C   UNL     1      64.284  65.323  70.893  0.00  0.00    +0.000 C 
ATOM     14  C   UNL     1      61.958  65.463  71.720  0.00  0.00    +0.000 C 
ATOM     15  C   UNL     1      61.196  65.158  71.812  0.00  0.00    +0.000 C 
ATOM     16  C   UNL     1      60.626  65.593  72.220  0.00  0.00    +0.000 C 
ATOM     17  C   UNL     1      59.864  65.289  72.312  0.00  0.00    +0.000 C 
ATOM     18  C   UNL     1      59.673  64.551  71.996  0.00  0.00    +0.000 C 
ATOM     19  C   UNL     1      59.293  65.724  72.719  0.00  0.00    +0.000 C 
ATOM     20  C   UNL     1      58.531  65.419  72.811  0.00  0.00    +0.000 C 
ATOM     21  O   UNL     1      58.341  64.681  72.496  0.00  0.00    +0.000 OA
ATOM     22  O   UNL     1      57.961  65.854  73.219  0.00  0.00    +0.000 OA
ENDROOT
TORSDOF 0
ENDMDL
MODEL 7
REMARK VINA RESULT:   -10.200      5.428      6.539
REMARK INTER + INTRA:         -10.200
REMARK INTER:                 -10.200
REMARK INTRA:                   0.000
REMARK UNBOUND:                 0.000
ROOT
REMARK  Name = tretinoin
REMARK                            x       y       z     vdW  Elec       q    Type
REMARK                         _______ _______ _______ _____ _____    ______ ____
ATOM      1  C   UNL     1      62.657  64.037  71.217  0.00  0.00    +0.000 C 
ATOM      2  C   UNL     1      62.197  64.690  71.427  0.00  0.00    +0.000 C 
ATOM      3  C   UNL     1      61.401  64.588  71.622  0.00  0.00    +0.000 C 
ATOM      4  C   UNL     1      60.942  65.240  71.831  0.00  0.00    +0.000 C 
ATOM      5  C   UNL     1      60.147  65.139  72.027  0.00  0.00    +0.000 C 
ATOM      6  C   UNL     1      59.688  65.792  72.236  0.00  0.00    +0.000 C 
ATOM      7  C   UNL     1      60.023  66.545  72.250  0.00  0.00    +0.000 C 
ATOM      8  C   UNL     1      58.893  65.690  72.431  0.00  0.00    +0.000 C 
ATOM      9  C   UNL     1      58.557  64.937  72.417  0.00  0.00    +0.000 C 
ATOM     10  C   UNL     1      59.017  64.284  72.208  0.00  0.00    +0.000 C 
ATOM     11  C   UNL     1      59.813  64.386  72.012  0.00  0.00    +0.000 C 
ATOM     12  C   UNL     1      59.911  63.578  71.876  0.00  0.00    +0.000 C 
ATOM     13  C   UNL     1      60.524  64.042  71.778  0.00  0.00    +0.000 C 
ATOM     14  C   UNL     1      62.532  65.443  71.441  0.00  0.00    +0.000 C 
ATOM     15  C   UNL     1      63.328  65.545  71.246  0.00  0.00    +0.000 C 
ATOM     16  C   UNL     1      63.663  66.298  71.260  0.00  0.00    +0.000 C 
ATOM     17  C   UNL     1      64.459  66.399  71.065  0.00  0.00    +0.000 C 
ATOM     18  C   UNL     1      64.918  65.747  70.855  0.00  0.00    +0.000 C 
ATOM     19  C   UNL     1      64.794  67.153  71.079  0.00  0.00    +0.000 C 
ATOM     20  C   UNL     1      65.589  67.254  70.884  0.00  0.00    +0.000 C 
ATOM     21  O   UNL     1      66.049  66.602  70.674  0.00  0.00    +0.000 OA
ATOM     22  O   UNL     1      65.924  68.008  70.898  0.00  0.00    +0.000 OA
ENDROOT
TORSDOF 0
ENDMDL
MODEL 8
REMARK VINA RESULT:   -10.004      4.563      5.885
REMARK INTER + INTRA:         -10.004
REMARK INTER:                 -10.004
REMARK INTRA:                   0.000
REMARK UNBOUND:                 0.000
ROOT
REMARK  Name = tretinoin
REMARK                            x       y       z     vdW  Elec       q    Type
REMARK                         _______ _______ _______ _____ _____    ______ ____
ATOM      1  C   UNL     1      60.226  65.733  72.746  0.00  0.00    +0.000 C 
ATOM      2  C   UNL     1      60.796  65.326  72.310  0.00  0.00    +0.000 C 
ATOM      3  C   UNL     1      60.633  64.569  72.022  0.00  0.00    +0.000 C 
ATOM      4  C   UNL     1      61.203  64.163  71.587  0.00  0.00    +0.000 C 
ATOM      5  C   UNL     1      61.041  63.407  71.299  0.00  0.00    +0.000 C 
ATOM      6  C   UNL     1      61.611  63.000  70.863  0.00  0.00    +0.000 C 
ATOM      7  C   UNL     1      62.343  63.349  70.714  0.00  0.00    +0.000 C 
ATOM      8  C   UNL     1      61.448  62.245  70.575  0.00  0.00    +0.000 C 
ATOM      9  C   UNL     1      60.716  61.895  70.723  0.00  0.00    +0.000 C 
ATOM     10  C   UNL     1      60.146  62.302  71.159  0.00  0.00    +0.000 C 
ATOM     11  C   UNL     1      60.308  63.059  71.448  0.00  0.00    +0.000 C 
ATOM     12  C   UNL     1      59.562  63.118  71.795  0.00  0.00    +0.000 C 
ATOM     13  C   UNL     1      60.048  63.717  71.870  0.00  0.00    +0.000 C 
ATOM     14  C   UNL     1      61.529  65.674  72.162  0.00  0.00    +0.000 C 
ATOM     15  C   UNL     1      61.691  66.431  72.450  0.00  0.00    +0.000 C 
ATOM     16  C   UNL     1      62.424  66.779  72.301  0.00  0.00    +0.000 C 
ATOM     17  C   UNL     1      62.587  67.536  72.589  0.00  0.00    +0.000 C 
ATOM     18  C   UNL     1      62.017  67.943  73.025  0.00  0.00    +0.000 C 
ATOM     19  C   UNL     1      63.319  67.884  72.440  0.00  0.00    +0.000 C 
ATOM     20  C   UNL     1      63.482  68.641  72.728  0.00  0.00    +0.000 C 
ATOM     21  O   UNL     1      62.912  69.048  73.164  0.00  0.00    +0.000 OA
ATOM     22  O   UNL     1      64.215  68.990  72.579  0.00  0.00    +0.000 OA
ENDROOT
TORSDOF 0
ENDMDL
MODEL 9
REMARK VINA RESULT:    -9.374      2.835      4.013
REMARK INTER + INTRA:          -9.374
REMARK INTER:                  -9.374
REMARK INTRA:                   0.000
REMARK UNBOUND:                 0.000
ROOT
REMARK  Name = tretinoin
REMARK                            x       y       z     vdW  Elec       q    Type
REMARK                         _______ _______ _______ _____ _____    ______ ____
ATOM      1  C   UNL     1      60.273  65.942  68.959  0.00  0.00    +0.000 C 
ATOM      2  C   UNL     1      60.534  65.267  69.355  0.00  0.00    +0.000 C 
ATOM      3  C   UNL     1      60.403  64.520  69.029  0.00  0.00    +0.000 C 
ATOM      4  C   UNL     1      60.664  63.846  69.425  0.00  0.00    +0.000 C 
ATOM      5  C   UNL     1      60.534  63.099  69.099  0.00  0.00    +0.000 C 
ATOM      6  C   UNL     1      60.795  62.425  69.496  0.00  0.00    +0.000 C 
ATOM      7  C   UNL     1      61.187  62.497  70.217  0.00  0.00    +0.000 C 
ATOM      8  C   UNL     1      60.664  61.679  69.170  0.00  0.00    +0.000 C 
ATOM      9  C   UNL     1      60.272  61.606  68.447  0.00  0.00    +0.000 C 
ATOM     10  C   UNL     1      60.011  62.281  68.051  0.00  0.00    +0.000 C 
ATOM     11  C   UNL     1      60.142  63.028  68.377  0.00  0.00    +0.000 C 
ATOM     12  C   UNL     1      59.769  63.402  67.743  0.00  0.00    +0.000 C 
ATOM     13  C   UNL     1      60.053  63.845  68.311  0.00  0.00    +0.000 C 
ATOM     14  C   UNL     1      60.926  65.338  70.077  0.00  0.00    +0.000 C 
ATOM     15  C   UNL     1      61.057  66.085  70.403  0.00  0.00    +0.000 C 
ATOM     16  C   UNL     1      61.449  66.157  71.126  0.00  0.00    +0.000 C 
ATOM     17  C   UNL     1      61.580  66.904  71.452  0.00  0.00    +0.000 C 
ATOM     18  C   UNL     1      61.318  67.578  71.055  0.00  0.00    +0.000 C 
ATOM     19  C   UNL     1      61.972  66.975  72.174  0.00  0.00    +0.000 C 
ATOM     20  C   UNL     1      62.102  67.722  72.500  0.00  0.00    +0.000 C 
ATOM     21  O   UNL     1      61.841  68.397  72.104  0.00  0.00    +0.000 OA
ATOM     22  O   UNL     1      62.494  67.793  73.222  0.00  0.00    +0.000 OA
ENDROOT
TORSDOF 0
ENDMDL
