MODEL 1
REMARK VINA RESULT:   -10.315      0.000      0.000
REMARK INTER + INTRA:         -10.315
REMARK INTER:                 -10.315
REMARK INTRA:                   0.000
REMARK UNBOUND:                 0.000
ROOT
REMARK  Name = trichlormethiazide
REMARK                            x       y       z     vdW  Elec       q    Type
REMARK                         _______ _______ _______ _____ _____    ______ ____
ATOM      1  N   UNL     1      60.944  60.911  63.685  0.00  0.00    +0.000 NA
ATOM      2  S   UNL     1      61.043  61.324  64.392  0.00  0.00    +0.000 S 
ATOM      3  O   UNL     1      60.239  61.236  64.557  0.00  0.00    +0.000 OA
ATOM      4  O   UNL     1      61.847  61.412  64.228  0.00  0.00    +0.000 OA
ATOM      5  C   UNL     1      61.143  61.737  65.098  0.00  0.00    +0.000 A 
ATOM      6  C   UNL     1      60.497  61.868  65.595  0.00  0.00    +0.000 A 
ATOM      7  C   UNL     1      60.596  62.281  66.302  0.00  0.00    +0.000 A 
ATOM      8  C   UNL     1      61.343  62.564  66.514  0.00  0.00    +0.000 A 
ATOM      9  N   UNL     1      61.442  62.977  67.220  0.00  0.00    +0.000 NA
ATOM     10  C   UNL     1      60.797  63.108  67.716  0.00  0.00    +0.000 C 
ATOM     11  N   UNL     1      60.050  62.825  67.505  0.00  0.00    +0.000 NA
ATOM     12  S   UNL     1      59.950  62.412  66.798  0.00  0.00    +0.000 S 
ATOM     13  O   UNL     1      59.144  62.310  66.938  0.00  0.00    +0.000 OA
ATOM     14  O   UNL     1      59.440  62.015  66.286  0.00  0.00    +0.000 OA
ATOM     15  C   UNL     1      60.896  63.521  68.423  0.00  0.00    +0.000 C 
ATOM     16 CL   UNL     1      61.641  63.803  68.634  0.00  0.00    +0.000 Cl
ATOM     17 CL   UNL     1      60.250  63.652  68.919  0.00  0.00    +0.000 Cl
ATOM     18  C   UNL     1      61.988  62.433  66.017  0.00  0.00    +0.000 A 
ATOM     19  C   UNL     1      61.889  62.020  65.310  0.00  0.00    +0.000 A 
ATOM     20 CL   UNL     1      62.535  61.889  64.814  0.00  0.00    +0.000 Cl
ENDROOT
TORSDOF 0
ENDMDL
MODEL 2
REMARK VINA RESULT:   -10.208      1.666      3.801
REMARK INTER + INTRA:         -10.208
REMARK INTER:                 -10.208
REMARK INTRA:                   0.000
REMARK UNBOUND:                 0.000
ROOT
REMARK  Name = trichlormethiazide
REMARK                            x       y       z     vdW  Elec       q    Type
REMARK                         _______ _______ _______ _____ _____    ______ ____
ATOM      1  N   UNL     1      60.102  63.255  68.283  0.00  0.00    +0.000 NA
ATOM      2  S   UNL     1      60.237  62.901  67.551  0.00  0.00    +0.000 S 
ATOM      3  O   UNL     1      61.021  63.159  67.571  0.00  0.00    +0.000 OA
ATOM      4  O   UNL     1      59.453  62.643  67.531  0.00  0.00    +0.000 OA
ATOM      5  C   UNL     1      60.372  62.548  66.819  0.00  0.00    +0.000 A 
ATOM      6  C   UNL     1      61.118  62.593  66.469  0.00  0.00    +0.000 A 
ATOM      7  C   UNL     1      61.254  62.239  65.736  0.00  0.00    +0.000 A 
ATOM      8  C   UNL     1      60.642  61.838  65.352  0.00  0.00    +0.000 A 
ATOM      9  N   UNL     1      60.777  61.485  64.620  0.00  0.00    +0.000 NA
ATOM     10  C   UNL     1      61.523  61.531  64.271  0.00  0.00    +0.000 C 
ATOM     11  N   UNL     1      62.134  61.931  64.655  0.00  0.00    +0.000 NA
ATOM     12  S   UNL     1      61.999  62.285  65.387  0.00  0.00    +0.000 S 
ATOM     13  O   UNL     1      62.777  62.555  65.432  0.00  0.00    +0.000 OA
ATOM     14  O   UNL     1      62.300  62.722  66.018  0.00  0.00    +0.000 OA
ATOM     15  C   UNL     1      61.658  61.176  63.538  0.00  0.00    +0.000 C 
ATOM     16 CL   UNL     1      61.047  60.776  63.154  0.00  0.00    +0.000 Cl
ATOM     17 CL   UNL     1      62.404  61.222  63.189  0.00  0.00    +0.000 Cl
ATOM     18  C   UNL     1      59.896  61.793  65.702  0.00  0.00    +0.000 A 
ATOM     19  C   UNL     1      59.760  62.147  66.435  0.00  0.00    +0.000 A 
ATOM     20 CL   UNL     1      59.015  62.101  66.784  0.00  0.00    +0.000 Cl
ENDROOT
TORSDOF 0
ENDMDL
MODEL 3
REMARK VINA RESULT:    -9.726      1.474      3.507
REMARK INTER + INTRA:          -9.726
REMARK INTER:                  -9.726
REMARK INTRA:                   0.000
REMARK UNBOUND:                 0.000
ROOT
REMARK  Name = trichlormethiazide
REMARK                            x       y       z     vdW  Elec       q    Type
REMARK                         _______ _______ _______ _____ _____    ______ ____
ATOM      1  N   UNL     1      60.211  64.086  69.520  0.00  0.00    +0.000 NA
ATOM      2  S   UNL     1      60.464  63.720  68.826  0.00  0.00    +0.000 S 
ATOM      3  O   UNL     1      59.684  63.510  68.652  0.00  0.00    +0.000 OA
ATOM      4  O   UNL     1      61.243  63.930  68.998  0.00  0.00    +0.000 OA
ATOM      5  C   UNL     1      60.716  63.355  68.132  0.00  0.00    +0.000 A 
ATOM      6  C   UNL     1      60.169  62.990  67.634  0.00  0.00    +0.000 A 
ATOM      7  C   UNL     1      60.421  62.623  66.939  0.00  0.00    +0.000 A 
ATOM      8  C   UNL     1      61.223  62.623  66.741  0.00  0.00    +0.000 A 
ATOM      9  N   UNL     1      61.476  62.257  66.047  0.00  0.00    +0.000 NA
ATOM     10  C   UNL     1      60.929  61.892  65.550  0.00  0.00    +0.000 C 
ATOM     11  N   UNL     1      60.127  61.893  65.747  0.00  0.00    +0.000 NA
ATOM     12  S   UNL     1      59.874  62.259  66.442  0.00  0.00    +0.000 S 
ATOM     13  O   UNL     1      59.088  62.062  66.293  0.00  0.00    +0.000 OA
ATOM     14  O   UNL     1      59.247  62.457  66.939  0.00  0.00    +0.000 OA
ATOM     15  C   UNL     1      61.182  61.526  64.855  0.00  0.00    +0.000 C 
ATOM     16 CL   UNL     1      61.983  61.525  64.657  0.00  0.00    +0.000 Cl
ATOM     17 CL   UNL     1      60.634  61.161  64.358  0.00  0.00    +0.000 Cl
ATOM     18  C   UNL     1      61.771  62.988  67.239  0.00  0.00    +0.000 A 
ATOM     19  C   UNL     1      61.518  63.354  67.934  0.00  0.00    +0.000 A 
ATOM     20 CL   UNL     1      62.066  63.719  68.431  0.00  0.00    +0.000 Cl
ENDROOT
TORSDOF 0
ENDMDL
MODEL 4
REMARK VINA RESULT:    -9.314      2.805      4.637
REMARK INTER + INTRA:          -9.314
REMARK INTER:                  -9.314
REMARK INTRA:                   0.000
REMARK UNBOUND:                 0.000
ROOT
REMARK  Name = trichlormethiazide
REMARK                            x       y       z     vdW  Elec       q    Type
REMARK                         _______ _______ _______ _____ _____    ______ ____
ATOM      1  N   UNL     1      60.323  63.295  71.920  0.00  0.00    +0.000 NA
ATOM      2  S   UNL     1      60.445  63.060  71.139  0.00  0.00    +0.000 S 
ATOM      3  O   UNL     1      60.711  63.819  70.952  0.00  0.00    +0.000 OA
ATOM      4  O   UNL     1      60.179  62.301  71.325  0.00  0.00    +0.000 OA
ATOM      5  C   UNL     1      60.567  62.825  70.358  0.00  0.00    +0.000 A 
ATOM      6  C   UNL     1      60.858  63.364  69.805  0.00  0.00    +0.000 A 
ATOM      7  C   UNL     1      60.981  63.129  69.024  0.00  0.00    +0.000 A 
ATOM      8  C   UNL     1      60.812  62.354  68.795  0.00  0.00    +0.000 A 
ATOM      9  N   UNL     1      60.934  62.119  68.014  0.00  0.00    +0.000 NA
ATOM     10  C   UNL     1      61.225  62.657  67.462  0.00  0.00    +0.000 C 
ATOM     11  N   UNL     1      61.394  63.432  67.691  0.00  0.00    +0.000 NA
ATOM     12  S   UNL     1      61.272  63.667  68.472  0.00  0.00    +0.000 S 
ATOM     13  O   UNL     1      61.533  64.433  68.312  0.00  0.00    +0.000 OA
ATOM     14  O   UNL     1      61.309  64.268  69.035  0.00  0.00    +0.000 OA
ATOM     15  C   UNL     1      61.348  62.422  66.680  0.00  0.00    +0.000 C 
ATOM     16 CL   UNL     1      61.179  61.648  66.452  0.00  0.00    +0.000 Cl
ATOM     17 CL   UNL     1      61.639  62.961  66.128  0.00  0.00    +0.000 Cl
ATOM     18  C   UNL     1      60.520  61.815  69.348  0.00  0.00    +0.000 A 
ATOM     19  C   UNL     1      60.398  62.050  70.129  0.00  0.00    +0.000 A 
ATOM     20 CL   UNL     1      60.107  61.511  70.681  0.00  0.00    +0.000 Cl
ENDROOT
TORSDOF 0
ENDMDL
MODEL 5
REMARK VINA RESULT:    -9.215      2.737      3.779
REMARK INTER + INTRA:          -9.215
REMARK INTER:                  -9.215
REMARK INTRA:                   0.000
REMARK UNBOUND:                 0.000
ROOT
REMARK  Name = trichlormethiazide
REMARK                            x       y       z     vdW  Elec       q    Type
REMARK                         _______ _______ _______ _____ _____    ______ ____
ATOM      1  N   UNL     1      60.318  62.307  67.026  0.00  0.00    +0.000 NA
ATOM      2  S   UNL     1      60.567  62.519  67.783  0.00  0.00    +0.000 S 
ATOM      3  O   UNL     1      60.156  61.877  68.099  0.00  0.00    +0.000 OA
ATOM      4  O   UNL     1      60.978  63.162  67.467  0.00  0.00    +0.000 OA
ATOM      5  C   UNL     1      60.816  62.732  68.539  0.00  0.00    +0.000 A 
ATOM      6  C   UNL     1      60.586  62.283  69.192  0.00  0.00    +0.000 A 
ATOM      7  C   UNL     1      60.835  62.495  69.949  0.00  0.00    +0.000 A 
ATOM      8  C   UNL     1      61.316  63.159  70.055  0.00  0.00    +0.000 A 
ATOM      9  N   UNL     1      61.565  63.371  70.811  0.00  0.00    +0.000 NA
ATOM     10  C   UNL     1      61.334  62.922  71.463  0.00  0.00    +0.000 C 
ATOM     11  N   UNL     1      60.853  62.259  71.358  0.00  0.00    +0.000 NA
ATOM     12  S   UNL     1      60.604  62.046  70.601  0.00  0.00    +0.000 S 
ATOM     13  O   UNL     1      60.185  61.397  70.890  0.00  0.00    +0.000 OA
ATOM     14  O   UNL     1      60.175  61.526  70.127  0.00  0.00    +0.000 OA
ATOM     15  C   UNL     1      61.583  63.135  72.220  0.00  0.00    +0.000 C 
ATOM     16 CL   UNL     1      62.063  63.797  72.325  0.00  0.00    +0.000 Cl
ATOM     17 CL   UNL     1      61.352  62.685  72.872  0.00  0.00    +0.000 Cl
ATOM     18  C   UNL     1      61.546  63.608  69.402  0.00  0.00    +0.000 A 
ATOM     19  C   UNL     1      61.297  63.395  68.644  0.00  0.00    +0.000 A 
ATOM     20 CL   UNL     1      61.528  63.844  67.993  0.00  0.00    +0.000 Cl
ENDROOT
TORSDOF 0
ENDMDL
MODEL 6
REMARK VINA RESULT:    -9.056      2.891      3.951
REMARK INTER + INTRA:          -9.056
REMARK INTER:                  -9.056
REMARK INTRA:                   0.000
REMARK UNBOUND:                 0.000
ROOT
REMARK  Name = trichlormethiazide
REMARK                            x       y       z     vdW  Elec       q    Type
REMARK                         _______ _______ _______ _____ _____    ______ ____
ATOM      1  N   UNL     1      60.758  62.847  66.815  0.00  0.00    +0.000 NA
ATOM      2  S   UNL     1      60.838  62.840  67.636  0.00  0.00    +0.000 S 
ATOM      3  O   UNL     1      61.280  63.537  67.599  0.00  0.00    +0.000 OA
ATOM      4  O   UNL     1      60.396  62.144  67.673  0.00  0.00    +0.000 OA
ATOM      5  C   UNL     1      60.918  62.833  68.456  0.00  0.00    +0.000 A 
ATOM      6  C   UNL     1      61.340  63.432  68.836  0.00  0.00    +0.000 A 
ATOM      7  C   UNL     1      61.420  63.425  69.657  0.00  0.00    +0.000 A 
ATOM      8  C   UNL     1      61.077  62.818  70.100  0.00  0.00    +0.000 A 
ATOM      9  N   UNL     1      61.157  62.811  70.920  0.00  0.00    +0.000 NA
ATOM     10  C   UNL     1      61.579  63.409  71.299  0.00  0.00    +0.000 C 
ATOM     11  N   UNL     1      61.922  64.016  70.856  0.00  0.00    +0.000 NA
ATOM     12  S   UNL     1      61.842  64.024  70.035  0.00  0.00    +0.000 S 
ATOM     13  O   UNL     1      62.281  64.719  69.970  0.00  0.00    +0.000 OA
ATOM     14  O   UNL     1      62.009  64.398  69.320  0.00  0.00    +0.000 OA
ATOM     15  C   UNL     1      61.659  63.403  72.120  0.00  0.00    +0.000 C 
ATOM     16 CL   UNL     1      61.317  62.796  72.562  0.00  0.00    +0.000 Cl
ATOM     17 CL   UNL     1      62.081  64.001  72.499  0.00  0.00    +0.000 Cl
ATOM     18  C   UNL     1      60.655  62.219  69.720  0.00  0.00    +0.000 A 
ATOM     19  C   UNL     1      60.575  62.226  68.899  0.00  0.00    +0.000 A 
ATOM     20 CL   UNL     1      60.152  61.628  68.520  0.00  0.00    +0.000 Cl
ENDROOT
TORSDOF 0
ENDMDL
MODEL 7
REMARK VINA RESULT:    -9.003      5.609      6.707
REMARK INTER + INTRA:          -9.003
REMARK INTER:                  -9.003
REMARK INTRA:                   0.000
REMARK UNBOUND:                 0.000
ROOT
REMARK  Name = trichlormethiazide
REMARK                            x       y       z     vdW  Elec       q    Type
REMARK                         _______ _______ _______ _____ _____    ______ ____
ATOM      1  N   UNL     1      61.755  63.330  70.971  0.00  0.00    +0.000 NA
ATOM      2  S   UNL     1      62.290  63.957  70.991  0.00  0.00    +0.000 S 
ATOM      3  O   UNL     1      62.622  63.697  70.282  0.00  0.00    +0.000 OA
ATOM      4  O   UNL     1      61.959  64.218  71.701  0.00  0.00    +0.000 OA
ATOM      5  C   UNL     1      62.825  64.584  71.011  0.00  0.00    +0.000 A 
ATOM      6  C   UNL     1      63.381  64.673  70.407  0.00  0.00    +0.000 A 
ATOM      7  C   UNL     1      63.916  65.300  70.427  0.00  0.00    +0.000 A 
ATOM      8  C   UNL     1      63.897  65.840  71.052  0.00  0.00    +0.000 A 
ATOM      9  N   UNL     1      64.432  66.467  71.072  0.00  0.00    +0.000 NA
ATOM     10  C   UNL     1      64.987  66.555  70.468  0.00  0.00    +0.000 C 
ATOM     11  N   UNL     1      65.006  66.015  69.843  0.00  0.00    +0.000 NA
ATOM     12  S   UNL     1      64.471  65.389  69.823  0.00  0.00    +0.000 S 
ATOM     13  O   UNL     1      64.783  65.107  69.114  0.00  0.00    +0.000 OA
ATOM     14  O   UNL     1      64.193  64.719  69.430  0.00  0.00    +0.000 OA
ATOM     15  C   UNL     1      65.522  67.182  70.487  0.00  0.00    +0.000 C 
ATOM     16 CL   UNL     1      65.503  67.721  71.112  0.00  0.00    +0.000 Cl
ATOM     17 CL   UNL     1      66.077  67.271  69.884  0.00  0.00    +0.000 Cl
ATOM     18  C   UNL     1      63.342  65.751  71.656  0.00  0.00    +0.000 A 
ATOM     19  C   UNL     1      62.806  65.124  71.636  0.00  0.00    +0.000 A 
ATOM     20 CL   UNL     1      62.252  65.035  72.240  0.00  0.00    +0.000 Cl
ENDROOT
TORSDOF 0
ENDMDL
MODEL 8
REMARK VINA RESULT:    -8.940      4.991      5.885
REMARK INTER + INTRA:          -8.940
REMARK INTER:                  -8.940
REMARK INTRA:                   0.000
REMARK UNBOUND:                 0.000
ROOT
REMARK  Name = trichlormethiazide
REMARK                            x       y       z     vdW  Elec       q    Type
REMARK                         _______ _______ _______ _____ _____    ______ ____
ATOM      1  N   UNL     1      59.420  67.449  70.986  0.00  0.00    +0.000 NA
ATOM      2  S   UNL     1      59.574  66.676  70.744  0.00  0.00    +0.000 S 
ATOM      3  O   UNL     1      59.596  66.433  71.533  0.00  0.00    +0.000 OA
ATOM      4  O   UNL     1      59.553  66.917  69.956  0.00  0.00    +0.000 OA
ATOM      5  C   UNL     1      59.729  65.903  70.503  0.00  0.00    +0.000 A 
ATOM      6  C   UNL     1      59.824  65.306  71.065  0.00  0.00    +0.000 A 
ATOM      7  C   UNL     1      59.979  64.532  70.824  0.00  0.00    +0.000 A 
ATOM      8  C   UNL     1      60.037  64.354  70.019  0.00  0.00    +0.000 A 
ATOM      9  N   UNL     1      60.191  63.581  69.778  0.00  0.00    +0.000 NA
ATOM     10  C   UNL     1      60.287  62.985  70.340  0.00  0.00    +0.000 C 
ATOM     11  N   UNL     1      60.228  63.163  71.144  0.00  0.00    +0.000 NA
ATOM     12  S   UNL     1      60.074  63.936  71.385  0.00  0.00    +0.000 S 
ATOM     13  O   UNL     1      60.090  63.721  72.181  0.00  0.00    +0.000 OA
ATOM     14  O   UNL     1      59.955  64.463  72.008  0.00  0.00    +0.000 OA
ATOM     15  C   UNL     1      60.441  62.211  70.099  0.00  0.00    +0.000 C 
ATOM     16 CL   UNL     1      60.500  62.034  69.295  0.00  0.00    +0.000 Cl
ATOM     17 CL   UNL     1      60.537  61.615  70.660  0.00  0.00    +0.000 Cl
ATOM     18  C   UNL     1      59.942  64.951  69.458  0.00  0.00    +0.000 A 
ATOM     19  C   UNL     1      59.787  65.725  69.699  0.00  0.00    +0.000 A 
ATOM     20 CL   UNL     1      59.692  66.321  69.137  0.00  0.00    +0.000 Cl
ENDROOT
TORSDOF 0
ENDMDL
MODEL 9
REMARK VINA RESULT:    -8.775      4.853      5.682
REMARK INTER + INTRA:          -8.775
REMARK INTER:                  -8.775
REMARK INTRA:                   0.000
REMARK UNBOUND:                 0.000
ROOT
REMARK  Name = trichlormethiazide
REMARK                            x       y       z     vdW  Elec       q    Type
REMARK                         _______ _______ _______ _____ _____    ______ ____
ATOM      1  N   UNL     1      60.228  61.896  70.848  0.00  0.00    +0.000 NA
ATOM      2  S   UNL     1      60.787  62.492  70.957  0.00  0.00    +0.000 S 
ATOM      3  O   UNL     1      60.964  62.475  70.151  0.00  0.00    +0.000 OA
ATOM      4  O   UNL     1      60.611  62.510  71.763  0.00  0.00    +0.000 OA
ATOM      5  C   UNL     1      61.346  63.088  71.067  0.00  0.00    +0.000 A 
ATOM      6  C   UNL     1      61.779  63.372  70.424  0.00  0.00    +0.000 A 
ATOM      7  C   UNL     1      62.339  63.969  70.533  0.00  0.00    +0.000 A 
ATOM      8  C   UNL     1      62.465  64.283  71.286  0.00  0.00    +0.000 A 
ATOM      9  N   UNL     1      63.024  64.879  71.396  0.00  0.00    +0.000 NA
ATOM     10  C   UNL     1      63.456  65.162  70.754  0.00  0.00    +0.000 C 
ATOM     11  N   UNL     1      63.330  64.848  70.000  0.00  0.00    +0.000 NA
ATOM     12  S   UNL     1      62.771  64.252  69.891  0.00  0.00    +0.000 S 
ATOM     13  O   UNL     1      62.928  64.213  69.082  0.00  0.00    +0.000 OA
ATOM     14  O   UNL     1      62.391  63.737  69.371  0.00  0.00    +0.000 OA
ATOM     15  C   UNL     1      64.016  65.758  70.863  0.00  0.00    +0.000 C 
ATOM     16 CL   UNL     1      64.142  66.072  71.615  0.00  0.00    +0.000 Cl
ATOM     17 CL   UNL     1      64.448  66.041  70.220  0.00  0.00    +0.000 Cl
ATOM     18  C   UNL     1      62.032  63.999  71.929  0.00  0.00    +0.000 A 
ATOM     19  C   UNL     1      61.473  63.402  71.820  0.00  0.00    +0.000 A 
ATOM     20 CL   UNL     1      61.040  63.119  72.462  0.00  0.00    +0.000 Cl
ENDROOT
TORSDOF 0
ENDMDL
