MODEL 1
REMARK VINA RESULT:    -4.528      0.000      0.000
REMARK INTER + INTRA:          -4.528
REMARK INTER:                  -4.528
REMARK INTRA:                   0.000
REMARK UNBOUND:                 0.000
ROOT
REMARK  Name = trichloroacetic acid
REMARK                            x       y       z     vdW  Elec       q    Type
REMARK                         _______ _______ _______ _____ _____    ______ ____
ATOM      1  O   UNL     1      60.563  61.295  64.839  0.00  0.00    +0.000 OA
ATOM      2  C   UNL     1      61.299  61.643  64.969  0.00  0.00    +0.000 C 
ATOM      3  O   UNL     1      61.485  61.951  65.712  0.00  0.00    +0.000 OA
ATOM      4  C   UNL     1      61.851  61.683  64.357  0.00  0.00    +0.000 C 
ATOM      5 CL   UNL     1      62.402  61.723  63.744  0.00  0.00    +0.000 Cl
ATOM      6 CL   UNL     1      62.383  62.061  64.861  0.00  0.00    +0.000 Cl
ATOM      7 CL   UNL     1      61.318  61.305  63.852  0.00  0.00    +0.000 Cl
ENDROOT
TORSDOF 0
ENDMDL
MODEL 2
REMARK VINA RESULT:    -4.459     17.380     17.609
REMARK INTER + INTRA:          -4.459
REMARK INTER:                  -4.459
REMARK INTRA:                   0.000
REMARK UNBOUND:                 0.000
ROOT
REMARK  Name = trichloroacetic acid
REMARK                            x       y       z     vdW  Elec       q    Type
REMARK                         _______ _______ _______ _____ _____    ______ ____
ATOM      1  O   UNL     1      65.117  78.275  59.228  0.00  0.00    +0.000 OA
ATOM      2  C   UNL     1      65.657  77.809  59.644  0.00  0.00    +0.000 C 
ATOM      3  O   UNL     1      65.392  77.156  60.074  0.00  0.00    +0.000 OA
ATOM      4  C   UNL     1      66.460  77.996  59.629  0.00  0.00    +0.000 C 
ATOM      5 CL   UNL     1      67.264  78.182  59.615  0.00  0.00    +0.000 Cl
ATOM      6 CL   UNL     1      66.619  77.350  60.118  0.00  0.00    +0.000 Cl
ATOM      7 CL   UNL     1      66.302  78.641  59.141  0.00  0.00    +0.000 Cl
ENDROOT
TORSDOF 0
ENDMDL
MODEL 3
REMARK VINA RESULT:    -3.981     16.437     16.860
REMARK INTER + INTRA:          -3.981
REMARK INTER:                  -3.981
REMARK INTRA:                   0.000
REMARK UNBOUND:                 0.000
ROOT
REMARK  Name = trichloroacetic acid
REMARK                            x       y       z     vdW  Elec       q    Type
REMARK                         _______ _______ _______ _____ _____    ______ ____
ATOM      1  O   UNL     1      59.376  76.217  72.455  0.00  0.00    +0.000 OA
ATOM      2  C   UNL     1      58.581  76.431  72.501  0.00  0.00    +0.000 C 
ATOM      3  O   UNL     1      58.370  77.229  72.526  0.00  0.00    +0.000 OA
ATOM      4  C   UNL     1      57.996  75.849  72.523  0.00  0.00    +0.000 C 
ATOM      5 CL   UNL     1      57.412  75.267  72.545  0.00  0.00    +0.000 Cl
ATOM      6 CL   UNL     1      57.416  76.433  72.564  0.00  0.00    +0.000 Cl
ATOM      7 CL   UNL     1      58.577  75.265  72.482  0.00  0.00    +0.000 Cl
ENDROOT
TORSDOF 0
ENDMDL
MODEL 4
REMARK VINA RESULT:    -3.951      8.360      8.980
REMARK INTER + INTRA:          -3.951
REMARK INTER:                  -3.951
REMARK INTRA:                   0.000
REMARK UNBOUND:                 0.000
ROOT
REMARK  Name = trichloroacetic acid
REMARK                            x       y       z     vdW  Elec       q    Type
REMARK                         _______ _______ _______ _____ _____    ______ ____
ATOM      1  O   UNL     1      65.562  66.641  71.672  0.00  0.00    +0.000 OA
ATOM      2  C   UNL     1      65.388  66.634  70.865  0.00  0.00    +0.000 C 
ATOM      3  O   UNL     1      64.819  66.113  70.571  0.00  0.00    +0.000 OA
ATOM      4  C   UNL     1      65.782  67.147  70.353  0.00  0.00    +0.000 C 
ATOM      5 CL   UNL     1      66.176  67.660  69.841  0.00  0.00    +0.000 Cl
ATOM      6 CL   UNL     1      65.353  66.842  69.718  0.00  0.00    +0.000 Cl
ATOM      7 CL   UNL     1      66.211  67.451  70.989  0.00  0.00    +0.000 Cl
ENDROOT
TORSDOF 0
ENDMDL
MODEL 5
REMARK VINA RESULT:    -3.809     24.476     24.772
REMARK INTER + INTRA:          -3.809
REMARK INTER:                  -3.809
REMARK INTRA:                   0.000
REMARK UNBOUND:                 0.000
ROOT
REMARK  Name = trichloroacetic acid
REMARK                            x       y       z     vdW  Elec       q    Type
REMARK                         _______ _______ _______ _____ _____    ______ ____
ATOM      1  O   UNL     1      70.142  79.540  50.255  0.00  0.00    +0.000 OA
ATOM      2  C   UNL     1      70.790  79.394  49.765  0.00  0.00    +0.000 C 
ATOM      3  O   UNL     1      71.390  79.958  49.696  0.00  0.00    +0.000 OA
ATOM      4  C   UNL     1      70.838  78.686  49.344  0.00  0.00    +0.000 C 
ATOM      5 CL   UNL     1      70.887  77.978  48.924  0.00  0.00    +0.000 Cl
ATOM      6 CL   UNL     1      71.558  78.927  49.022  0.00  0.00    +0.000 Cl
ATOM      7 CL   UNL     1      70.118  78.445  49.667  0.00  0.00    +0.000 Cl
ENDROOT
TORSDOF 0
ENDMDL
MODEL 6
REMARK VINA RESULT:    -3.693      7.479      7.831
REMARK INTER + INTRA:          -3.693
REMARK INTER:                  -3.693
REMARK INTRA:                   0.000
REMARK UNBOUND:                 0.000
ROOT
REMARK  Name = trichloroacetic acid
REMARK                            x       y       z     vdW  Elec       q    Type
REMARK                         _______ _______ _______ _____ _____    ______ ____
ATOM      1  O   UNL     1      59.942  63.710  71.814  0.00  0.00    +0.000 OA
ATOM      2  C   UNL     1      60.612  63.589  72.279  0.00  0.00    +0.000 C 
ATOM      3  O   UNL     1      60.831  64.152  72.841  0.00  0.00    +0.000 OA
ATOM      4  C   UNL     1      61.065  62.906  72.181  0.00  0.00    +0.000 C 
ATOM      5 CL   UNL     1      61.517  62.223  72.084  0.00  0.00    +0.000 Cl
ATOM      6 CL   UNL     1      61.578  63.161  72.774  0.00  0.00    +0.000 Cl
ATOM      7 CL   UNL     1      60.552  62.650  71.588  0.00  0.00    +0.000 Cl
ENDROOT
TORSDOF 0
ENDMDL
MODEL 7
REMARK VINA RESULT:    -3.689      5.485      6.035
REMARK INTER + INTRA:          -3.689
REMARK INTER:                  -3.689
REMARK INTRA:                   0.000
REMARK UNBOUND:                 0.000
ROOT
REMARK  Name = trichloroacetic acid
REMARK                            x       y       z     vdW  Elec       q    Type
REMARK                         _______ _______ _______ _____ _____    ______ ____
ATOM      1  O   UNL     1      60.320  63.643  70.553  0.00  0.00    +0.000 OA
ATOM      2  C   UNL     1      60.484  62.986  70.081  0.00  0.00    +0.000 C 
ATOM      3  O   UNL     1      60.714  63.090  69.295  0.00  0.00    +0.000 OA
ATOM      4  C   UNL     1      60.418  62.226  70.395  0.00  0.00    +0.000 C 
ATOM      5 CL   UNL     1      60.352  61.466  70.709  0.00  0.00    +0.000 Cl
ATOM      6 CL   UNL     1      60.645  61.907  69.669  0.00  0.00    +0.000 Cl
ATOM      7 CL   UNL     1      60.190  62.545  71.121  0.00  0.00    +0.000 Cl
ENDROOT
TORSDOF 0
ENDMDL
MODEL 8
REMARK VINA RESULT:    -3.241     12.448     12.716
REMARK INTER + INTRA:          -3.241
REMARK INTER:                  -3.241
REMARK INTRA:                   0.000
REMARK UNBOUND:                 0.000
ROOT
REMARK  Name = trichloroacetic acid
REMARK                            x       y       z     vdW  Elec       q    Type
REMARK                         _______ _______ _______ _____ _____    ______ ____
ATOM      1  O   UNL     1      61.926  69.615  55.562  0.00  0.00    +0.000 OA
ATOM      2  C   UNL     1      62.448  69.237  55.048  0.00  0.00    +0.000 C 
ATOM      3  O   UNL     1      62.662  68.450  55.182  0.00  0.00    +0.000 OA
ATOM      4  C   UNL     1      62.758  69.643  54.400  0.00  0.00    +0.000 C 
ATOM      5 CL   UNL     1      63.067  70.050  53.752  0.00  0.00    +0.000 Cl
ATOM      6 CL   UNL     1      63.183  68.971  54.181  0.00  0.00    +0.000 Cl
ATOM      7 CL   UNL     1      62.333  70.316  54.619  0.00  0.00    +0.000 Cl
ENDROOT
TORSDOF 0
ENDMDL
MODEL 9
REMARK VINA RESULT:    -3.175      9.167      9.349
REMARK INTER + INTRA:          -3.175
REMARK INTER:                  -3.175
REMARK INTRA:                   0.000
REMARK UNBOUND:                 0.000
ROOT
REMARK  Name = trichloroacetic acid
REMARK                            x       y       z     vdW  Elec       q    Type
REMARK                         _______ _______ _______ _____ _____    ______ ____
ATOM      1  O   UNL     1      58.990  67.212  72.125  0.00  0.00    +0.000 OA
ATOM      2  C   UNL     1      59.801  67.364  72.102  0.00  0.00    +0.000 C 
ATOM      3  O   UNL     1      60.265  67.226  72.771  0.00  0.00    +0.000 OA
ATOM      4  C   UNL     1      60.148  67.653  71.412  0.00  0.00    +0.000 C 
ATOM      5 CL   UNL     1      60.495  67.942  70.721  0.00  0.00    +0.000 Cl
ATOM      6 CL   UNL     1      60.883  67.661  71.785  0.00  0.00    +0.000 Cl
ATOM      7 CL   UNL     1      59.412  67.645  71.038  0.00  0.00    +0.000 Cl
ENDROOT
TORSDOF 0
ENDMDL
