MODEL 1
REMARK VINA RESULT:   -15.733      0.000      0.000
REMARK INTER + INTRA:         -15.733
REMARK INTER:                 -15.733
REMARK INTRA:                   0.000
REMARK UNBOUND:                 0.000
ROOT
REMARK  Name = trifluperidol
REMARK                            x       y       z     vdW  Elec       q    Type
REMARK                         _______ _______ _______ _____ _____    ______ ____
ATOM      1  O   UNL     1      62.164  62.639  65.873  0.00  0.00    +0.000 OA
ATOM      2  C   UNL     1      61.473  62.490  66.298  0.00  0.00    +0.000 C 
ATOM      3  C   UNL     1      60.724  62.196  66.483  0.00  0.00    +0.000 C 
ATOM      4  C   UNL     1      60.381  62.372  67.213  0.00  0.00    +0.000 C 
ATOM      5  N   UNL     1      60.786  62.840  67.757  0.00  0.00    +0.000 NA
ATOM      6  C   UNL     1      60.442  63.016  68.487  0.00  0.00    +0.000 C 
ATOM      7  C   UNL     1      60.848  63.485  69.031  0.00  0.00    +0.000 C 
ATOM      8  C   UNL     1      60.504  63.660  69.761  0.00  0.00    +0.000 C 
ATOM      9  C   UNL     1      60.909  64.129  70.305  0.00  0.00    +0.000 C 
ATOM     10  O   UNL     1      61.658  64.422  70.120  0.00  0.00    +0.000 OA
ATOM     11  C   UNL     1      60.566  64.304  71.035  0.00  0.00    +0.000 A 
ATOM     12  C   UNL     1      59.817  64.010  71.220  0.00  0.00    +0.000 A 
ATOM     13  C   UNL     1      59.474  64.185  71.948  0.00  0.00    +0.000 A 
ATOM     14  C   UNL     1      59.879  64.654  72.494  0.00  0.00    +0.000 A 
ATOM     15  F   UNL     1      59.536  64.830  73.222  0.00  0.00    +0.000 F 
ATOM     16  C   UNL     1      60.627  64.948  72.309  0.00  0.00    +0.000 A 
ATOM     17  C   UNL     1      60.971  64.773  71.579  0.00  0.00    +0.000 A 
ATOM     18  C   UNL     1      61.535  63.134  67.572  0.00  0.00    +0.000 C 
ATOM     19  C   UNL     1      61.878  62.959  66.843  0.00  0.00    +0.000 C 
ATOM     20  C   UNL     1      61.307  62.073  65.606  0.00  0.00    +0.000 A 
ATOM     21  C   UNL     1      61.858  62.059  64.992  0.00  0.00    +0.000 A 
ATOM     22  C   UNL     1      61.693  61.642  64.299  0.00  0.00    +0.000 A 
ATOM     23  C   UNL     1      60.978  61.238  64.221  0.00  0.00    +0.000 A 
ATOM     24  C   UNL     1      60.427  61.252  64.835  0.00  0.00    +0.000 A 
ATOM     25  C   UNL     1      60.592  61.670  65.528  0.00  0.00    +0.000 A 
ATOM     26  C   UNL     1      62.243  61.628  63.685  0.00  0.00    +0.000 C 
ATOM     27  F   UNL     1      62.794  61.613  63.070  0.00  0.00    +0.000 F 
ATOM     28  F   UNL     1      61.735  61.154  63.240  0.00  0.00    +0.000 F 
ATOM     29  F   UNL     1      62.753  62.102  64.130  0.00  0.00    +0.000 F 
ENDROOT
TORSDOF 0
ENDMDL
MODEL 2
REMARK VINA RESULT:   -15.369      1.027      6.766
REMARK INTER + INTRA:         -15.369
REMARK INTER:                 -15.369
REMARK INTRA:                   0.000
REMARK UNBOUND:                 0.000
ROOT
REMARK  Name = trifluperidol
REMARK                            x       y       z     vdW  Elec       q    Type
REMARK                         _______ _______ _______ _____ _____    ______ ____
ATOM      1  O   UNL     1      61.871  63.988  70.342  0.00  0.00    +0.000 OA
ATOM      2  C   UNL     1      61.334  63.461  70.004  0.00  0.00    +0.000 C 
ATOM      3  C   UNL     1      60.691  62.950  69.932  0.00  0.00    +0.000 C 
ATOM      4  C   UNL     1      60.540  62.575  69.212  0.00  0.00    +0.000 C 
ATOM      5  N   UNL     1      61.033  62.713  68.565  0.00  0.00    +0.000 NA
ATOM      6  C   UNL     1      60.882  62.338  67.845  0.00  0.00    +0.000 C 
ATOM      7  C   UNL     1      61.375  62.476  67.198  0.00  0.00    +0.000 C 
ATOM      8  C   UNL     1      61.224  62.101  66.478  0.00  0.00    +0.000 C 
ATOM      9  C   UNL     1      61.717  62.239  65.831  0.00  0.00    +0.000 C 
ATOM     10  O   UNL     1      62.360  62.750  65.903  0.00  0.00    +0.000 OA
ATOM     11  C   UNL     1      61.566  61.864  65.111  0.00  0.00    +0.000 A 
ATOM     12  C   UNL     1      60.923  61.353  65.038  0.00  0.00    +0.000 A 
ATOM     13  C   UNL     1      60.772  60.979  64.319  0.00  0.00    +0.000 A 
ATOM     14  C   UNL     1      61.265  61.116  63.671  0.00  0.00    +0.000 A 
ATOM     15  F   UNL     1      61.114  60.742  62.952  0.00  0.00    +0.000 F 
ATOM     16  C   UNL     1      61.908  61.627  63.744  0.00  0.00    +0.000 A 
ATOM     17  C   UNL     1      62.059  62.002  64.464  0.00  0.00    +0.000 A 
ATOM     18  C   UNL     1      61.676  63.224  68.637  0.00  0.00    +0.000 C 
ATOM     19  C   UNL     1      61.827  63.598  69.357  0.00  0.00    +0.000 C 
ATOM     20  C   UNL     1      61.027  63.506  70.769  0.00  0.00    +0.000 A 
ATOM     21  C   UNL     1      61.393  63.986  71.331  0.00  0.00    +0.000 A 
ATOM     22  C   UNL     1      61.087  64.032  72.096  0.00  0.00    +0.000 A 
ATOM     23  C   UNL     1      60.415  63.598  72.298  0.00  0.00    +0.000 A 
ATOM     24  C   UNL     1      60.049  63.119  71.736  0.00  0.00    +0.000 A 
ATOM     25  C   UNL     1      60.355  63.073  70.970  0.00  0.00    +0.000 A 
ATOM     26  C   UNL     1      61.453  64.512  72.659  0.00  0.00    +0.000 C 
ATOM     27  F   UNL     1      61.819  64.991  73.222  0.00  0.00    +0.000 F 
ATOM     28  F   UNL     1      60.889  64.288  73.217  0.00  0.00    +0.000 F 
ATOM     29  F   UNL     1      62.019  64.736  72.101  0.00  0.00    +0.000 F 
ENDROOT
TORSDOF 0
ENDMDL
MODEL 3
REMARK VINA RESULT:   -13.933      3.504      6.714
REMARK INTER + INTRA:         -13.933
REMARK INTER:                 -13.933
REMARK INTRA:                   0.000
REMARK UNBOUND:                 0.000
ROOT
REMARK  Name = trifluperidol
REMARK                            x       y       z     vdW  Elec       q    Type
REMARK                         _______ _______ _______ _____ _____    ______ ____
ATOM      1  O   UNL     1      64.720  65.475  69.957  0.00  0.00    +0.000 OA
ATOM      2  C   UNL     1      63.912  65.396  70.101  0.00  0.00    +0.000 C 
ATOM      3  C   UNL     1      63.178  65.478  70.470  0.00  0.00    +0.000 C 
ATOM      4  C   UNL     1      62.509  65.123  70.142  0.00  0.00    +0.000 C 
ATOM      5  N   UNL     1      62.575  64.685  69.446  0.00  0.00    +0.000 NA
ATOM      6  C   UNL     1      61.906  64.329  69.118  0.00  0.00    +0.000 C 
ATOM      7  C   UNL     1      61.971  63.891  68.422  0.00  0.00    +0.000 C 
ATOM      8  C   UNL     1      61.302  63.536  68.094  0.00  0.00    +0.000 C 
ATOM      9  C   UNL     1      61.368  63.098  67.398  0.00  0.00    +0.000 C 
ATOM     10  O   UNL     1      62.101  63.016  67.029  0.00  0.00    +0.000 OA
ATOM     11  C   UNL     1      60.699  62.742  67.070  0.00  0.00    +0.000 A 
ATOM     12  C   UNL     1      59.965  62.825  67.439  0.00  0.00    +0.000 A 
ATOM     13  C   UNL     1      59.297  62.470  67.111  0.00  0.00    +0.000 A 
ATOM     14  C   UNL     1      59.362  62.031  66.415  0.00  0.00    +0.000 A 
ATOM     15  F   UNL     1      58.694  61.676  66.087  0.00  0.00    +0.000 F 
ATOM     16  C   UNL     1      60.095  61.949  66.046  0.00  0.00    +0.000 A 
ATOM     17  C   UNL     1      60.764  62.305  66.374  0.00  0.00    +0.000 A 
ATOM     18  C   UNL     1      63.308  64.602  69.077  0.00  0.00    +0.000 C 
ATOM     19  C   UNL     1      63.976  64.958  69.405  0.00  0.00    +0.000 C 
ATOM     20  C   UNL     1      64.127  65.861  70.747  0.00  0.00    +0.000 A 
ATOM     21  C   UNL     1      64.913  66.092  70.845  0.00  0.00    +0.000 A 
ATOM     22  C   UNL     1      65.129  66.558  71.491  0.00  0.00    +0.000 A 
ATOM     23  C   UNL     1      64.559  66.792  72.039  0.00  0.00    +0.000 A 
ATOM     24  C   UNL     1      63.773  66.561  71.942  0.00  0.00    +0.000 A 
ATOM     25  C   UNL     1      63.557  66.095  71.295  0.00  0.00    +0.000 A 
ATOM     26  C   UNL     1      65.914  66.789  71.588  0.00  0.00    +0.000 C 
ATOM     27  F   UNL     1      66.701  67.021  71.687  0.00  0.00    +0.000 F 
ATOM     28  F   UNL     1      65.710  67.193  72.278  0.00  0.00    +0.000 F 
ATOM     29  F   UNL     1      66.120  66.385  70.898  0.00  0.00    +0.000 F 
ENDROOT
TORSDOF 0
ENDMDL
MODEL 4
REMARK VINA RESULT:   -13.397      0.948      6.887
REMARK INTER + INTRA:         -13.397
REMARK INTER:                 -13.397
REMARK INTRA:                   0.000
REMARK UNBOUND:                 0.000
ROOT
REMARK  Name = trifluperidol
REMARK                            x       y       z     vdW  Elec       q    Type
REMARK                         _______ _______ _______ _____ _____    ______ ____
ATOM      1  O   UNL     1      61.223  65.317  70.479  0.00  0.00    +0.000 OA
ATOM      2  C   UNL     1      60.768  64.683  70.213  0.00  0.00    +0.000 C 
ATOM      3  C   UNL     1      60.190  64.094  70.201  0.00  0.00    +0.000 C 
ATOM      4  C   UNL     1      60.124  63.594  69.548  0.00  0.00    +0.000 C 
ATOM      5  N   UNL     1      60.636  63.682  68.908  0.00  0.00    +0.000 NA
ATOM      6  C   UNL     1      60.569  63.182  68.254  0.00  0.00    +0.000 C 
ATOM      7  C   UNL     1      61.081  63.270  67.614  0.00  0.00    +0.000 C 
ATOM      8  C   UNL     1      61.015  62.770  66.961  0.00  0.00    +0.000 C 
ATOM      9  C   UNL     1      61.527  62.858  66.320  0.00  0.00    +0.000 C 
ATOM     10  O   UNL     1      62.105  63.447  66.332  0.00  0.00    +0.000 OA
ATOM     11  C   UNL     1      61.460  62.358  65.667  0.00  0.00    +0.000 A 
ATOM     12  C   UNL     1      60.882  61.769  65.655  0.00  0.00    +0.000 A 
ATOM     13  C   UNL     1      60.816  61.270  65.003  0.00  0.00    +0.000 A 
ATOM     14  C   UNL     1      61.328  61.357  64.361  0.00  0.00    +0.000 A 
ATOM     15  F   UNL     1      61.262  60.858  63.709  0.00  0.00    +0.000 F 
ATOM     16  C   UNL     1      61.906  61.946  64.373  0.00  0.00    +0.000 A 
ATOM     17  C   UNL     1      61.972  62.446  65.026  0.00  0.00    +0.000 A 
ATOM     18  C   UNL     1      61.214  64.271  68.919  0.00  0.00    +0.000 C 
ATOM     19  C   UNL     1      61.280  64.770  69.572  0.00  0.00    +0.000 C 
ATOM     20  C   UNL     1      60.414  64.814  70.946  0.00  0.00    +0.000 A 
ATOM     21  C   UNL     1      60.692  65.418  71.435  0.00  0.00    +0.000 A 
ATOM     22  C   UNL     1      60.338  65.550  72.169  0.00  0.00    +0.000 A 
ATOM     23  C   UNL     1      59.707  65.078  72.413  0.00  0.00    +0.000 A 
ATOM     24  C   UNL     1      59.429  64.475  71.924  0.00  0.00    +0.000 A 
ATOM     25  C   UNL     1      59.783  64.343  71.190  0.00  0.00    +0.000 A 
ATOM     26  C   UNL     1      60.616  66.154  72.658  0.00  0.00    +0.000 C 
ATOM     27  F   UNL     1      60.893  66.757  73.148  0.00  0.00    +0.000 F 
ATOM     28  F   UNL     1      60.047  65.958  73.222  0.00  0.00    +0.000 F 
ATOM     29  F   UNL     1      61.185  66.350  72.093  0.00  0.00    +0.000 F 
ENDROOT
TORSDOF 0
ENDMDL
MODEL 5
REMARK VINA RESULT:   -13.387      2.476      3.277
REMARK INTER + INTRA:         -13.387
REMARK INTER:                 -13.387
REMARK INTRA:                   0.000
REMARK UNBOUND:                 0.000
ROOT
REMARK  Name = trifluperidol
REMARK                            x       y       z     vdW  Elec       q    Type
REMARK                         _______ _______ _______ _____ _____    ______ ____
ATOM      1  O   UNL     1      59.753  63.448  67.975  0.00  0.00    +0.000 OA
ATOM      2  C   UNL     1      60.543  63.652  68.101  0.00  0.00    +0.000 C 
ATOM      3  C   UNL     1      61.362  63.672  68.008  0.00  0.00    +0.000 C 
ATOM      4  C   UNL     1      61.822  64.149  68.501  0.00  0.00    +0.000 C 
ATOM      5  N   UNL     1      61.461  64.604  69.086  0.00  0.00    +0.000 NA
ATOM      6  C   UNL     1      61.921  65.081  69.580  0.00  0.00    +0.000 C 
ATOM      7  C   UNL     1      61.561  65.536  70.165  0.00  0.00    +0.000 C 
ATOM      8  C   UNL     1      62.020  66.013  70.658  0.00  0.00    +0.000 C 
ATOM      9  C   UNL     1      61.660  66.468  71.244  0.00  0.00    +0.000 C 
ATOM     10  O   UNL     1      60.840  66.448  71.337  0.00  0.00    +0.000 OA
ATOM     11  C   UNL     1      62.119  66.945  71.737  0.00  0.00    +0.000 A 
ATOM     12  C   UNL     1      62.939  66.965  71.644  0.00  0.00    +0.000 A 
ATOM     13  C   UNL     1      63.398  67.441  72.136  0.00  0.00    +0.000 A 
ATOM     14  C   UNL     1      63.038  67.897  72.723  0.00  0.00    +0.000 A 
ATOM     15  F   UNL     1      63.497  68.373  73.215  0.00  0.00    +0.000 F 
ATOM     16  C   UNL     1      62.219  67.877  72.816  0.00  0.00    +0.000 A 
ATOM     17  C   UNL     1      61.759  67.400  72.323  0.00  0.00    +0.000 A 
ATOM     18  C   UNL     1      60.642  64.584  69.180  0.00  0.00    +0.000 C 
ATOM     19  C   UNL     1      60.183  64.108  68.687  0.00  0.00    +0.000 C 
ATOM     20  C   UNL     1      60.630  63.126  67.472  0.00  0.00    +0.000 A 
ATOM     21  C   UNL     1      59.965  62.764  67.143  0.00  0.00    +0.000 A 
ATOM     22  C   UNL     1      60.051  62.238  66.513  0.00  0.00    +0.000 A 
ATOM     23  C   UNL     1      60.801  62.073  66.213  0.00  0.00    +0.000 A 
ATOM     24  C   UNL     1      61.465  62.435  66.541  0.00  0.00    +0.000 A 
ATOM     25  C   UNL     1      61.380  62.961  67.171  0.00  0.00    +0.000 A 
ATOM     26  C   UNL     1      59.386  61.876  66.184  0.00  0.00    +0.000 C 
ATOM     27  F   UNL     1      58.722  61.514  65.855  0.00  0.00    +0.000 F 
ATOM     28  F   UNL     1      59.869  61.477  65.647  0.00  0.00    +0.000 F 
ATOM     29  F   UNL     1      58.903  62.275  66.721  0.00  0.00    +0.000 F 
ENDROOT
TORSDOF 0
ENDMDL
