MODEL 1
REMARK VINA RESULT:   -12.676      0.000      0.000
REMARK INTER + INTRA:         -12.676
REMARK INTER:                 -12.676
REMARK INTRA:                   0.000
REMARK UNBOUND:                 0.000
ROOT
REMARK  Name = trimetrexate
REMARK                            x       y       z     vdW  Elec       q    Type
REMARK                         _______ _______ _______ _____ _____    ______ ____
ATOM      1  C   UNL     1      60.318  63.999  70.751  0.00  0.00    +0.000 C 
ATOM      2  O   UNL     1      60.117  63.583  70.067  0.00  0.00    +0.000 OA
ATOM      3  C   UNL     1      60.650  63.536  69.441  0.00  0.00    +0.000 A 
ATOM      4  C   UNL     1      60.449  63.120  68.757  0.00  0.00    +0.000 A 
ATOM      5  C   UNL     1      60.983  63.073  68.130  0.00  0.00    +0.000 A 
ATOM      6  N   UNL     1      60.781  62.657  67.447  0.00  0.00    +0.000 NA
ATOM      7  C   UNL     1      61.315  62.609  66.820  0.00  0.00    +0.000 C 
ATOM      8  C   UNL     1      61.114  62.193  66.136  0.00  0.00    +0.000 A 
ATOM      9  C   UNL     1      60.377  61.824  66.080  0.00  0.00    +0.000 A 
ATOM     10  C   UNL     1      60.175  61.409  65.397  0.00  0.00    +0.000 A 
ATOM     11  C   UNL     1      60.709  61.361  64.770  0.00  0.00    +0.000 A 
ATOM     12  N   UNL     1      60.507  60.945  64.087  0.00  0.00    +0.000 NA
ATOM     13  C   UNL     1      61.041  60.898  63.460  0.00  0.00    +0.000 A 
ATOM     14  N   UNL     1      60.840  60.482  62.776  0.00  0.00    +0.000 NA
ATOM     15  N   UNL     1      61.778  61.267  63.516  0.00  0.00    +0.000 NA
ATOM     16  C   UNL     1      61.979  61.682  64.199  0.00  0.00    +0.000 A 
ATOM     17  N   UNL     1      62.715  62.051  64.255  0.00  0.00    +0.000 NA
ATOM     18  C   UNL     1      61.446  61.730  64.827  0.00  0.00    +0.000 A 
ATOM     19  C   UNL     1      61.647  62.146  65.510  0.00  0.00    +0.000 A 
ATOM     20  C   UNL     1      62.383  62.514  65.566  0.00  0.00    +0.000 C 
ATOM     21  C   UNL     1      61.719  63.441  68.186  0.00  0.00    +0.000 A 
ATOM     22  C   UNL     1      61.921  63.857  68.869  0.00  0.00    +0.000 A 
ATOM     23  O   UNL     1      62.656  64.225  68.925  0.00  0.00    +0.000 OA
ATOM     24  C   UNL     1      62.858  64.642  69.609  0.00  0.00    +0.000 C 
ATOM     25  C   UNL     1      61.386  63.905  69.497  0.00  0.00    +0.000 A 
ATOM     26  O   UNL     1      61.589  64.321  70.180  0.00  0.00    +0.000 OA
ATOM     27  C   UNL     1      62.324  64.689  70.236  0.00  0.00    +0.000 C 
ENDROOT
TORSDOF 0
ENDMDL
MODEL 2
REMARK VINA RESULT:   -11.796      2.463      5.679
REMARK INTER + INTRA:         -11.796
REMARK INTER:                 -11.796
REMARK INTRA:                   0.000
REMARK UNBOUND:                 0.000
ROOT
REMARK  Name = trimetrexate
REMARK                            x       y       z     vdW  Elec       q    Type
REMARK                         _______ _______ _______ _____ _____    ______ ____
ATOM      1  C   UNL     1      62.480  62.318  63.564  0.00  0.00    +0.000 C 
ATOM      2  O   UNL     1      62.573  62.658  64.310  0.00  0.00    +0.000 OA
ATOM      3  C   UNL     1      62.099  62.412  64.938  0.00  0.00    +0.000 A 
ATOM      4  C   UNL     1      62.192  62.752  65.684  0.00  0.00    +0.000 A 
ATOM      5  C   UNL     1      61.718  62.506  66.312  0.00  0.00    +0.000 A 
ATOM      6  N   UNL     1      61.811  62.846  67.057  0.00  0.00    +0.000 NA
ATOM      7  C   UNL     1      61.337  62.601  67.686  0.00  0.00    +0.000 C 
ATOM      8  C   UNL     1      61.430  62.941  68.432  0.00  0.00    +0.000 A 
ATOM      9  C   UNL     1      61.999  63.528  68.550  0.00  0.00    +0.000 A 
ATOM     10  C   UNL     1      62.092  63.868  69.295  0.00  0.00    +0.000 A 
ATOM     11  C   UNL     1      61.618  63.622  69.923  0.00  0.00    +0.000 A 
ATOM     12  N   UNL     1      61.711  63.962  70.669  0.00  0.00    +0.000 NA
ATOM     13  C   UNL     1      61.236  63.716  71.297  0.00  0.00    +0.000 A 
ATOM     14  N   UNL     1      61.329  64.056  72.043  0.00  0.00    +0.000 NA
ATOM     15  N   UNL     1      60.668  63.129  71.179  0.00  0.00    +0.000 NA
ATOM     16  C   UNL     1      60.574  62.789  70.434  0.00  0.00    +0.000 A 
ATOM     17  N   UNL     1      60.006  62.202  70.316  0.00  0.00    +0.000 NA
ATOM     18  C   UNL     1      61.049  63.035  69.805  0.00  0.00    +0.000 A 
ATOM     19  C   UNL     1      60.955  62.695  69.060  0.00  0.00    +0.000 A 
ATOM     20  C   UNL     1      60.387  62.108  68.942  0.00  0.00    +0.000 C 
ATOM     21  C   UNL     1      61.150  61.920  66.194  0.00  0.00    +0.000 A 
ATOM     22  C   UNL     1      61.056  61.579  65.449  0.00  0.00    +0.000 A 
ATOM     23  O   UNL     1      60.488  60.994  65.332  0.00  0.00    +0.000 OA
ATOM     24  C   UNL     1      60.394  60.653  64.585  0.00  0.00    +0.000 C 
ATOM     25  C   UNL     1      61.531  61.826  64.820  0.00  0.00    +0.000 A 
ATOM     26  O   UNL     1      61.437  61.485  64.075  0.00  0.00    +0.000 OA
ATOM     27  C   UNL     1      60.869  60.900  63.958  0.00  0.00    +0.000 C 
ENDROOT
TORSDOF 0
ENDMDL
MODEL 3
REMARK VINA RESULT:   -11.747      2.548      5.716
REMARK INTER + INTRA:         -11.747
REMARK INTER:                 -11.747
REMARK INTRA:                   0.000
REMARK UNBOUND:                 0.000
ROOT
REMARK  Name = trimetrexate
REMARK                            x       y       z     vdW  Elec       q    Type
REMARK                         _______ _______ _______ _____ _____    ______ ____
ATOM      1  C   UNL     1      59.609  61.619  65.416  0.00  0.00    +0.000 C 
ATOM      2  O   UNL     1      59.570  61.914  66.186  0.00  0.00    +0.000 OA
ATOM      3  C   UNL     1      60.238  62.247  66.535  0.00  0.00    +0.000 A 
ATOM      4  C   UNL     1      60.199  62.542  67.305  0.00  0.00    +0.000 A 
ATOM      5  C   UNL     1      60.867  62.875  67.654  0.00  0.00    +0.000 A 
ATOM      6  N   UNL     1      60.828  63.170  68.423  0.00  0.00    +0.000 NA
ATOM      7  C   UNL     1      61.496  63.503  68.773  0.00  0.00    +0.000 C 
ATOM      8  C   UNL     1      61.457  63.798  69.542  0.00  0.00    +0.000 A 
ATOM      9  C   UNL     1      60.747  63.759  69.963  0.00  0.00    +0.000 A 
ATOM     10  C   UNL     1      60.708  64.053  70.732  0.00  0.00    +0.000 A 
ATOM     11  C   UNL     1      61.376  64.387  71.081  0.00  0.00    +0.000 A 
ATOM     12  N   UNL     1      61.337  64.681  71.851  0.00  0.00    +0.000 NA
ATOM     13  C   UNL     1      62.005  65.015  72.200  0.00  0.00    +0.000 A 
ATOM     14  N   UNL     1      61.966  65.310  72.970  0.00  0.00    +0.000 NA
ATOM     15  N   UNL     1      62.715  65.054  71.779  0.00  0.00    +0.000 NA
ATOM     16  C   UNL     1      62.754  64.759  71.010  0.00  0.00    +0.000 A 
ATOM     17  N   UNL     1      63.463  64.798  70.590  0.00  0.00    +0.000 NA
ATOM     18  C   UNL     1      62.086  64.426  70.660  0.00  0.00    +0.000 A 
ATOM     19  C   UNL     1      62.125  64.131  69.891  0.00  0.00    +0.000 A 
ATOM     20  C   UNL     1      62.834  64.170  69.471  0.00  0.00    +0.000 C 
ATOM     21  C   UNL     1      61.576  62.914  67.233  0.00  0.00    +0.000 A 
ATOM     22  C   UNL     1      61.617  62.620  66.464  0.00  0.00    +0.000 A 
ATOM     23  O   UNL     1      62.325  62.659  66.044  0.00  0.00    +0.000 OA
ATOM     24  C   UNL     1      62.365  62.364  65.274  0.00  0.00    +0.000 C 
ATOM     25  C   UNL     1      60.947  62.286  66.114  0.00  0.00    +0.000 A 
ATOM     26  O   UNL     1      60.988  61.992  65.345  0.00  0.00    +0.000 OA
ATOM     27  C   UNL     1      61.696  62.031  64.925  0.00  0.00    +0.000 C 
ENDROOT
TORSDOF 0
ENDMDL
MODEL 4
REMARK VINA RESULT:   -10.621      3.860      6.466
REMARK INTER + INTRA:         -10.621
REMARK INTER:                 -10.621
REMARK INTRA:                   0.000
REMARK UNBOUND:                 0.000
ROOT
REMARK  Name = trimetrexate
REMARK                            x       y       z     vdW  Elec       q    Type
REMARK                         _______ _______ _______ _____ _____    ______ ____
ATOM      1  C   UNL     1      60.139  62.234  70.521  0.00  0.00    +0.000 C 
ATOM      2  O   UNL     1      60.761  62.650  70.871  0.00  0.00    +0.000 OA
ATOM      3  C   UNL     1      61.225  63.157  70.418  0.00  0.00    +0.000 A 
ATOM      4  C   UNL     1      61.847  63.573  70.768  0.00  0.00    +0.000 A 
ATOM      5  C   UNL     1      62.311  64.081  70.314  0.00  0.00    +0.000 A 
ATOM      6  N   UNL     1      62.932  64.495  70.665  0.00  0.00    +0.000 NA
ATOM      7  C   UNL     1      63.397  65.004  70.211  0.00  0.00    +0.000 C 
ATOM      8  C   UNL     1      64.019  65.419  70.561  0.00  0.00    +0.000 A 
ATOM      9  C   UNL     1      64.175  65.325  71.367  0.00  0.00    +0.000 A 
ATOM     10  C   UNL     1      64.795  65.739  71.717  0.00  0.00    +0.000 A 
ATOM     11  C   UNL     1      65.260  66.247  71.264  0.00  0.00    +0.000 A 
ATOM     12  N   UNL     1      65.881  66.662  71.614  0.00  0.00    +0.000 NA
ATOM     13  C   UNL     1      66.346  67.170  71.160  0.00  0.00    +0.000 A 
ATOM     14  N   UNL     1      66.967  67.585  71.510  0.00  0.00    +0.000 NA
ATOM     15  N   UNL     1      66.190  67.264  70.355  0.00  0.00    +0.000 NA
ATOM     16  C   UNL     1      65.569  66.850  70.004  0.00  0.00    +0.000 A 
ATOM     17  N   UNL     1      65.413  66.943  69.200  0.00  0.00    +0.000 NA
ATOM     18  C   UNL     1      65.104  66.341  70.458  0.00  0.00    +0.000 A 
ATOM     19  C   UNL     1      64.483  65.927  70.108  0.00  0.00    +0.000 A 
ATOM     20  C   UNL     1      64.327  66.020  69.303  0.00  0.00    +0.000 C 
ATOM     21  C   UNL     1      62.155  64.174  69.510  0.00  0.00    +0.000 A 
ATOM     22  C   UNL     1      61.534  63.760  69.159  0.00  0.00    +0.000 A 
ATOM     23  O   UNL     1      61.378  63.854  68.355  0.00  0.00    +0.000 OA
ATOM     24  C   UNL     1      60.757  63.439  68.004  0.00  0.00    +0.000 C 
ATOM     25  C   UNL     1      61.069  63.251  69.613  0.00  0.00    +0.000 A 
ATOM     26  O   UNL     1      60.448  62.837  69.262  0.00  0.00    +0.000 OA
ATOM     27  C   UNL     1      60.292  62.930  68.458  0.00  0.00    +0.000 C 
ENDROOT
TORSDOF 0
ENDMDL
