MODEL 1
REMARK VINA RESULT:   -10.586      0.000      0.000
REMARK INTER + INTRA:         -10.586
REMARK INTER:                 -10.586
REMARK INTRA:                   0.000
REMARK UNBOUND:                 0.000
ROOT
REMARK  Name = trimethyldiphenylpropylamine
REMARK                            x       y       z     vdW  Elec       q    Type
REMARK                         _______ _______ _______ _____ _____    ______ ____
ATOM      1  C   UNL     1      60.245  62.955  67.645  0.00  0.00    +0.000 C 
ATOM      2  C   UNL     1      61.055  63.112  67.593  0.00  0.00    +0.000 C 
ATOM      3  C   UNL     1      61.479  62.871  66.927  0.00  0.00    +0.000 C 
ATOM      4  C   UNL     1      61.095  62.473  66.314  0.00  0.00    +0.000 C 
ATOM      5  C   UNL     1      61.519  62.232  65.650  0.00  0.00    +0.000 A 
ATOM      6  C   UNL     1      61.136  61.834  65.037  0.00  0.00    +0.000 A 
ATOM      7  C   UNL     1      61.560  61.593  64.372  0.00  0.00    +0.000 A 
ATOM      8  C   UNL     1      62.368  61.750  64.319  0.00  0.00    +0.000 A 
ATOM      9  C   UNL     1      62.753  62.148  64.932  0.00  0.00    +0.000 A 
ATOM     10  C   UNL     1      62.328  62.389  65.597  0.00  0.00    +0.000 A 
ATOM     11  C   UNL     1      60.286  62.316  66.367  0.00  0.00    +0.000 A 
ATOM     12  C   UNL     1      59.862  62.557  67.033  0.00  0.00    +0.000 A 
ATOM     13  C   UNL     1      59.054  62.400  67.085  0.00  0.00    +0.000 A 
ATOM     14  C   UNL     1      58.671  62.002  66.472  0.00  0.00    +0.000 A 
ATOM     15  C   UNL     1      59.095  61.761  65.808  0.00  0.00    +0.000 A 
ATOM     16  C   UNL     1      59.903  61.918  65.755  0.00  0.00    +0.000 A 
ATOM     17  N   UNL     1      61.438  63.509  68.205  0.00  0.00    +0.000 NA
ATOM     18  C   UNL     1      62.246  63.666  68.152  0.00  0.00    +0.000 C 
ATOM     19  C   UNL     1      61.014  63.750  68.869  0.00  0.00    +0.000 C 
ENDROOT
TORSDOF 0
ENDMDL
MODEL 2
REMARK VINA RESULT:   -10.272      2.975      4.930
REMARK INTER + INTRA:         -10.272
REMARK INTER:                 -10.272
REMARK INTRA:                   0.000
REMARK UNBOUND:                 0.000
ROOT
REMARK  Name = trimethyldiphenylpropylamine
REMARK                            x       y       z     vdW  Elec       q    Type
REMARK                         _______ _______ _______ _____ _____    ______ ____
ATOM      1  C   UNL     1      60.085  64.079  69.359  0.00  0.00    +0.000 C 
ATOM      2  C   UNL     1      60.193  64.529  70.043  0.00  0.00    +0.000 C 
ATOM      3  C   UNL     1      60.501  64.179  70.724  0.00  0.00    +0.000 C 
ATOM      4  C   UNL     1      60.703  63.378  70.722  0.00  0.00    +0.000 C 
ATOM      5  C   UNL     1      61.011  63.028  71.401  0.00  0.00    +0.000 A 
ATOM      6  C   UNL     1      61.212  62.229  71.399  0.00  0.00    +0.000 A 
ATOM      7  C   UNL     1      61.521  61.878  72.079  0.00  0.00    +0.000 A 
ATOM      8  C   UNL     1      61.628  62.328  72.762  0.00  0.00    +0.000 A 
ATOM      9  C   UNL     1      61.426  63.129  72.765  0.00  0.00    +0.000 A 
ATOM     10  C   UNL     1      61.118  63.478  72.084  0.00  0.00    +0.000 A 
ATOM     11  C   UNL     1      60.595  62.928  70.038  0.00  0.00    +0.000 A 
ATOM     12  C   UNL     1      60.287  63.279  69.357  0.00  0.00    +0.000 A 
ATOM     13  C   UNL     1      60.180  62.829  68.674  0.00  0.00    +0.000 A 
ATOM     14  C   UNL     1      60.381  62.029  68.672  0.00  0.00    +0.000 A 
ATOM     15  C   UNL     1      60.689  61.679  69.352  0.00  0.00    +0.000 A 
ATOM     16  C   UNL     1      60.797  62.128  70.035  0.00  0.00    +0.000 A 
ATOM     17  N   UNL     1      59.991  65.329  70.046  0.00  0.00    +0.000 NA
ATOM     18  C   UNL     1      60.099  65.779  70.729  0.00  0.00    +0.000 C 
ATOM     19  C   UNL     1      59.683  65.679  69.366  0.00  0.00    +0.000 C 
ENDROOT
TORSDOF 0
ENDMDL
MODEL 3
REMARK VINA RESULT:   -10.118      3.010      5.110
REMARK INTER + INTRA:         -10.118
REMARK INTER:                 -10.118
REMARK INTRA:                   0.000
REMARK UNBOUND:                 0.000
ROOT
REMARK  Name = trimethyldiphenylpropylamine
REMARK                            x       y       z     vdW  Elec       q    Type
REMARK                         _______ _______ _______ _____ _____    ______ ____
ATOM      1  C   UNL     1      60.514  64.186  72.293  0.00  0.00    +0.000 C 
ATOM      2  C   UNL     1      60.138  64.551  71.654  0.00  0.00    +0.000 C 
ATOM      3  C   UNL     1      60.131  64.184  70.915  0.00  0.00    +0.000 C 
ATOM      4  C   UNL     1      60.500  63.453  70.813  0.00  0.00    +0.000 C 
ATOM      5  C   UNL     1      60.493  63.086  70.075  0.00  0.00    +0.000 A 
ATOM      6  C   UNL     1      60.861  62.356  69.973  0.00  0.00    +0.000 A 
ATOM      7  C   UNL     1      60.854  61.989  69.234  0.00  0.00    +0.000 A 
ATOM      8  C   UNL     1      60.478  62.353  68.597  0.00  0.00    +0.000 A 
ATOM      9  C   UNL     1      60.109  63.085  68.698  0.00  0.00    +0.000 A 
ATOM     10  C   UNL     1      60.117  63.451  69.437  0.00  0.00    +0.000 A 
ATOM     11  C   UNL     1      60.876  63.088  71.452  0.00  0.00    +0.000 A 
ATOM     12  C   UNL     1      60.883  63.455  72.191  0.00  0.00    +0.000 A 
ATOM     13  C   UNL     1      61.258  63.090  72.828  0.00  0.00    +0.000 A 
ATOM     14  C   UNL     1      61.627  62.359  72.726  0.00  0.00    +0.000 A 
ATOM     15  C   UNL     1      61.620  61.993  71.988  0.00  0.00    +0.000 A 
ATOM     16  C   UNL     1      61.244  62.357  71.350  0.00  0.00    +0.000 A 
ATOM     17  N   UNL     1      59.770  65.282  71.756  0.00  0.00    +0.000 NA
ATOM     18  C   UNL     1      59.394  65.646  71.118  0.00  0.00    +0.000 C 
ATOM     19  C   UNL     1      59.777  65.648  72.494  0.00  0.00    +0.000 C 
ENDROOT
TORSDOF 0
ENDMDL
MODEL 4
REMARK VINA RESULT:   -10.106      3.100      5.999
REMARK INTER + INTRA:         -10.106
REMARK INTER:                 -10.106
REMARK INTRA:                   0.000
REMARK UNBOUND:                 0.000
ROOT
REMARK  Name = trimethyldiphenylpropylamine
REMARK                            x       y       z     vdW  Elec       q    Type
REMARK                         _______ _______ _______ _____ _____    ______ ____
ATOM      1  C   UNL     1      61.044  62.118  70.506  0.00  0.00    +0.000 C 
ATOM      2  C   UNL     1      60.605  62.685  70.096  0.00  0.00    +0.000 C 
ATOM      3  C   UNL     1      60.346  63.366  70.484  0.00  0.00    +0.000 C 
ATOM      4  C   UNL     1      60.525  63.481  71.282  0.00  0.00    +0.000 C 
ATOM      5  C   UNL     1      60.266  64.161  71.669  0.00  0.00    +0.000 A 
ATOM      6  C   UNL     1      60.445  64.275  72.466  0.00  0.00    +0.000 A 
ATOM      7  C   UNL     1      60.186  64.956  72.854  0.00  0.00    +0.000 A 
ATOM      8  C   UNL     1      59.748  65.523  72.444  0.00  0.00    +0.000 A 
ATOM      9  C   UNL     1      59.569  65.408  71.646  0.00  0.00    +0.000 A 
ATOM     10  C   UNL     1      59.828  64.728  71.259  0.00  0.00    +0.000 A 
ATOM     11  C   UNL     1      60.964  62.914  71.692  0.00  0.00    +0.000 A 
ATOM     12  C   UNL     1      61.223  62.233  71.304  0.00  0.00    +0.000 A 
ATOM     13  C   UNL     1      61.661  61.667  71.713  0.00  0.00    +0.000 A 
ATOM     14  C   UNL     1      61.839  61.782  72.511  0.00  0.00    +0.000 A 
ATOM     15  C   UNL     1      61.581  62.462  72.898  0.00  0.00    +0.000 A 
ATOM     16  C   UNL     1      61.143  63.028  72.488  0.00  0.00    +0.000 A 
ATOM     17  N   UNL     1      60.426  62.571  69.299  0.00  0.00    +0.000 NA
ATOM     18  C   UNL     1      59.988  63.138  68.890  0.00  0.00    +0.000 C 
ATOM     19  C   UNL     1      60.685  61.891  68.912  0.00  0.00    +0.000 C 
ENDROOT
TORSDOF 0
ENDMDL
MODEL 5
REMARK VINA RESULT:    -9.964      2.930      5.546
REMARK INTER + INTRA:          -9.964
REMARK INTER:                  -9.964
REMARK INTRA:                   0.000
REMARK UNBOUND:                 0.000
ROOT
REMARK  Name = trimethyldiphenylpropylamine
REMARK                            x       y       z     vdW  Elec       q    Type
REMARK                         _______ _______ _______ _____ _____    ______ ____
ATOM      1  C   UNL     1      60.125  63.943  69.969  0.00  0.00    +0.000 C 
ATOM      2  C   UNL     1      60.497  63.237  69.757  0.00  0.00    +0.000 C 
ATOM      3  C   UNL     1      60.870  62.778  70.332  0.00  0.00    +0.000 C 
ATOM      4  C   UNL     1      60.872  63.024  71.120  0.00  0.00    +0.000 C 
ATOM      5  C   UNL     1      61.245  62.565  71.695  0.00  0.00    +0.000 A 
ATOM      6  C   UNL     1      61.247  62.811  72.481  0.00  0.00    +0.000 A 
ATOM      7  C   UNL     1      61.620  62.352  73.057  0.00  0.00    +0.000 A 
ATOM      8  C   UNL     1      61.992  61.647  72.844  0.00  0.00    +0.000 A 
ATOM      9  C   UNL     1      61.990  61.400  72.056  0.00  0.00    +0.000 A 
ATOM     10  C   UNL     1      61.617  61.860  71.482  0.00  0.00    +0.000 A 
ATOM     11  C   UNL     1      60.501  63.730  71.333  0.00  0.00    +0.000 A 
ATOM     12  C   UNL     1      60.127  64.189  70.757  0.00  0.00    +0.000 A 
ATOM     13  C   UNL     1      59.756  64.894  70.970  0.00  0.00    +0.000 A 
ATOM     14  C   UNL     1      59.758  65.140  71.758  0.00  0.00    +0.000 A 
ATOM     15  C   UNL     1      60.131  64.681  72.332  0.00  0.00    +0.000 A 
ATOM     16  C   UNL     1      60.502  63.976  72.120  0.00  0.00    +0.000 A 
ATOM     17  N   UNL     1      60.495  62.992  68.970  0.00  0.00    +0.000 NA
ATOM     18  C   UNL     1      60.867  62.286  68.757  0.00  0.00    +0.000 C 
ATOM     19  C   UNL     1      60.123  63.450  68.395  0.00  0.00    +0.000 C 
ENDROOT
TORSDOF 0
ENDMDL
MODEL 6
REMARK VINA RESULT:    -9.752      4.502      7.031
REMARK INTER + INTRA:          -9.752
REMARK INTER:                  -9.752
REMARK INTRA:                   0.000
REMARK UNBOUND:                 0.000
ROOT
REMARK  Name = trimethyldiphenylpropylamine
REMARK                            x       y       z     vdW  Elec       q    Type
REMARK                         _______ _______ _______ _____ _____    ______ ____
ATOM      1  C   UNL     1      62.578  65.200  71.321  0.00  0.00    +0.000 C 
ATOM      2  C   UNL     1      63.018  65.046  70.639  0.00  0.00    +0.000 C 
ATOM      3  C   UNL     1      63.681  65.505  70.464  0.00  0.00    +0.000 C 
ATOM      4  C   UNL     1      63.905  66.117  70.969  0.00  0.00    +0.000 C 
ATOM      5  C   UNL     1      64.568  66.575  70.794  0.00  0.00    +0.000 A 
ATOM      6  C   UNL     1      64.792  67.187  71.300  0.00  0.00    +0.000 A 
ATOM      7  C   UNL     1      65.455  67.646  71.125  0.00  0.00    +0.000 A 
ATOM      8  C   UNL     1      65.894  67.492  70.444  0.00  0.00    +0.000 A 
ATOM      9  C   UNL     1      65.670  66.880  69.937  0.00  0.00    +0.000 A 
ATOM     10  C   UNL     1      65.007  66.422  70.113  0.00  0.00    +0.000 A 
ATOM     11  C   UNL     1      63.466  66.271  71.651  0.00  0.00    +0.000 A 
ATOM     12  C   UNL     1      62.802  65.812  71.826  0.00  0.00    +0.000 A 
ATOM     13  C   UNL     1      62.363  65.965  72.507  0.00  0.00    +0.000 A 
ATOM     14  C   UNL     1      62.587  66.578  73.013  0.00  0.00    +0.000 A 
ATOM     15  C   UNL     1      63.250  67.036  72.838  0.00  0.00    +0.000 A 
ATOM     16  C   UNL     1      63.689  66.882  72.157  0.00  0.00    +0.000 A 
ATOM     17  N   UNL     1      62.794  64.434  70.133  0.00  0.00    +0.000 NA
ATOM     18  C   UNL     1      63.233  64.281  69.452  0.00  0.00    +0.000 C 
ATOM     19  C   UNL     1      62.132  63.976  70.308  0.00  0.00    +0.000 C 
ENDROOT
TORSDOF 0
ENDMDL
MODEL 7
REMARK VINA RESULT:    -9.747      5.181      6.534
REMARK INTER + INTRA:          -9.747
REMARK INTER:                  -9.747
REMARK INTRA:                   0.000
REMARK UNBOUND:                 0.000
ROOT
REMARK  Name = trimethyldiphenylpropylamine
REMARK                            x       y       z     vdW  Elec       q    Type
REMARK                         _______ _______ _______ _____ _____    ______ ____
ATOM      1  C   UNL     1      63.377  66.213  71.450  0.00  0.00    +0.000 C 
ATOM      2  C   UNL     1      62.842  66.192  72.080  0.00  0.00    +0.000 C 
ATOM      3  C   UNL     1      62.399  65.511  72.222  0.00  0.00    +0.000 C 
ATOM      4  C   UNL     1      62.490  64.849  71.737  0.00  0.00    +0.000 C 
ATOM      5  C   UNL     1      62.047  64.169  71.879  0.00  0.00    +0.000 A 
ATOM      6  C   UNL     1      62.138  63.509  71.394  0.00  0.00    +0.000 A 
ATOM      7  C   UNL     1      61.695  62.827  71.537  0.00  0.00    +0.000 A 
ATOM      8  C   UNL     1      61.161  62.806  72.165  0.00  0.00    +0.000 A 
ATOM      9  C   UNL     1      61.070  63.468  72.651  0.00  0.00    +0.000 A 
ATOM     10  C   UNL     1      61.513  64.148  72.508  0.00  0.00    +0.000 A 
ATOM     11  C   UNL     1      63.025  64.870  71.107  0.00  0.00    +0.000 A 
ATOM     12  C   UNL     1      63.467  65.552  70.965  0.00  0.00    +0.000 A 
ATOM     13  C   UNL     1      64.002  65.572  70.337  0.00  0.00    +0.000 A 
ATOM     14  C   UNL     1      64.092  64.911  69.851  0.00  0.00    +0.000 A 
ATOM     15  C   UNL     1      63.650  64.230  69.994  0.00  0.00    +0.000 A 
ATOM     16  C   UNL     1      63.115  64.210  70.622  0.00  0.00    +0.000 A 
ATOM     17  N   UNL     1      62.751  66.853  72.565  0.00  0.00    +0.000 NA
ATOM     18  C   UNL     1      62.217  66.832  73.193  0.00  0.00    +0.000 C 
ATOM     19  C   UNL     1      63.194  67.533  72.422  0.00  0.00    +0.000 C 
ENDROOT
TORSDOF 0
ENDMDL
MODEL 8
REMARK VINA RESULT:    -9.645      5.264      6.637
REMARK INTER + INTRA:          -9.645
REMARK INTER:                  -9.645
REMARK INTRA:                   0.000
REMARK UNBOUND:                 0.000
ROOT
REMARK  Name = trimethyldiphenylpropylamine
REMARK                            x       y       z     vdW  Elec       q    Type
REMARK                         _______ _______ _______ _____ _____    ______ ____
ATOM      1  C   UNL     1      63.452  65.954  71.290  0.00  0.00    +0.000 C 
ATOM      2  C   UNL     1      63.571  65.243  70.887  0.00  0.00    +0.000 C 
ATOM      3  C   UNL     1      63.107  64.585  71.067  0.00  0.00    +0.000 C 
ATOM      4  C   UNL     1      62.526  64.636  71.650  0.00  0.00    +0.000 C 
ATOM      5  C   UNL     1      62.063  63.978  71.830  0.00  0.00    +0.000 A 
ATOM      6  C   UNL     1      61.482  64.029  72.413  0.00  0.00    +0.000 A 
ATOM      7  C   UNL     1      61.018  63.370  72.593  0.00  0.00    +0.000 A 
ATOM      8  C   UNL     1      61.137  62.660  72.190  0.00  0.00    +0.000 A 
ATOM      9  C   UNL     1      61.719  62.609  71.607  0.00  0.00    +0.000 A 
ATOM     10  C   UNL     1      62.181  63.268  71.427  0.00  0.00    +0.000 A 
ATOM     11  C   UNL     1      62.407  65.347  72.054  0.00  0.00    +0.000 A 
ATOM     12  C   UNL     1      62.871  66.005  71.874  0.00  0.00    +0.000 A 
ATOM     13  C   UNL     1      62.752  66.715  72.277  0.00  0.00    +0.000 A 
ATOM     14  C   UNL     1      62.171  66.766  72.860  0.00  0.00    +0.000 A 
ATOM     15  C   UNL     1      61.708  66.108  73.040  0.00  0.00    +0.000 A 
ATOM     16  C   UNL     1      61.826  65.398  72.637  0.00  0.00    +0.000 A 
ATOM     17  N   UNL     1      64.152  65.192  70.304  0.00  0.00    +0.000 NA
ATOM     18  C   UNL     1      64.270  64.482  69.901  0.00  0.00    +0.000 C 
ATOM     19  C   UNL     1      64.615  65.850  70.124  0.00  0.00    +0.000 C 
ENDROOT
TORSDOF 0
ENDMDL
MODEL 9
REMARK VINA RESULT:    -9.642      2.068      4.508
REMARK INTER + INTRA:          -9.642
REMARK INTER:                  -9.642
REMARK INTRA:                   0.000
REMARK UNBOUND:                 0.000
ROOT
REMARK  Name = trimethyldiphenylpropylamine
REMARK                            x       y       z     vdW  Elec       q    Type
REMARK                         _______ _______ _______ _____ _____    ______ ____
ATOM      1  C   UNL     1      60.515  62.250  69.196  0.00  0.00    +0.000 C 
ATOM      2  C   UNL     1      60.831  62.817  68.684  0.00  0.00    +0.000 C 
ATOM      3  C   UNL     1      61.381  63.364  68.965  0.00  0.00    +0.000 C 
ATOM      4  C   UNL     1      61.616  63.345  69.756  0.00  0.00    +0.000 C 
ATOM      5  C   UNL     1      62.167  63.891  70.036  0.00  0.00    +0.000 A 
ATOM      6  C   UNL     1      62.401  63.872  70.826  0.00  0.00    +0.000 A 
ATOM      7  C   UNL     1      62.952  64.419  71.107  0.00  0.00    +0.000 A 
ATOM      8  C   UNL     1      63.268  64.985  70.597  0.00  0.00    +0.000 A 
ATOM      9  C   UNL     1      63.033  65.004  69.806  0.00  0.00    +0.000 A 
ATOM     10  C   UNL     1      62.482  64.457  69.526  0.00  0.00    +0.000 A 
ATOM     11  C   UNL     1      61.300  62.778  70.267  0.00  0.00    +0.000 A 
ATOM     12  C   UNL     1      60.750  62.232  69.986  0.00  0.00    +0.000 A 
ATOM     13  C   UNL     1      60.434  61.666  70.497  0.00  0.00    +0.000 A 
ATOM     14  C   UNL     1      60.669  61.647  71.288  0.00  0.00    +0.000 A 
ATOM     15  C   UNL     1      61.219  62.194  71.568  0.00  0.00    +0.000 A 
ATOM     16  C   UNL     1      61.535  62.759  71.057  0.00  0.00    +0.000 A 
ATOM     17  N   UNL     1      60.596  62.836  67.894  0.00  0.00    +0.000 NA
ATOM     18  C   UNL     1      60.912  63.402  67.384  0.00  0.00    +0.000 C 
ATOM     19  C   UNL     1      60.046  62.289  67.614  0.00  0.00    +0.000 C 
ENDROOT
TORSDOF 0
ENDMDL
