MODEL 1
REMARK VINA RESULT:   -12.986      0.000      0.000
REMARK INTER + INTRA:         -12.986
REMARK INTER:                 -12.986
REMARK INTRA:                   0.000
REMARK UNBOUND:                 0.000
ROOT
REMARK  Name = tripamide
REMARK                            x       y       z     vdW  Elec       q    Type
REMARK                         _______ _______ _______ _____ _____    ______ ____
ATOM      1  N   UNL     1      62.814  64.738  69.932  0.00  0.00    +0.000 NA
ATOM      2  S   UNL     1      62.228  64.207  69.700  0.00  0.00    +0.000 S 
ATOM      3  O   UNL     1      62.571  64.155  68.952  0.00  0.00    +0.000 OA
ATOM      4  O   UNL     1      61.884  64.260  70.449  0.00  0.00    +0.000 OA
ATOM      5  C   UNL     1      61.641  63.676  69.468  0.00  0.00    +0.000 A 
ATOM      6  C   UNL     1      61.050  63.456  70.000  0.00  0.00    +0.000 A 
ATOM      7 CL   UNL     1      61.046  63.767  70.764  0.00  0.00    +0.000 Cl
ATOM      8  C   UNL     1      60.463  62.925  69.768  0.00  0.00    +0.000 A 
ATOM      9  C   UNL     1      60.466  62.614  69.004  0.00  0.00    +0.000 A 
ATOM     10  C   UNL     1      61.057  62.834  68.472  0.00  0.00    +0.000 A 
ATOM     11  C   UNL     1      61.644  63.365  68.704  0.00  0.00    +0.000 A 
ATOM     12  C   UNL     1      61.060  62.523  67.708  0.00  0.00    +0.000 C 
ATOM     13  O   UNL     1      60.473  61.992  67.477  0.00  0.00    +0.000 OA
ATOM     14  N   UNL     1      61.652  62.743  67.176  0.00  0.00    +0.000 NA
ATOM     15  N   UNL     1      61.655  62.432  66.412  0.00  0.00    +0.000 NA
ATOM     16  C   UNL     1      62.207  62.599  65.823  0.00  0.00    +0.000 C 
ATOM     17  C   UNL     1      62.000  62.169  65.150  0.00  0.00    +0.000 C 
ATOM     18  C   UNL     1      62.343  62.116  64.401  0.00  0.00    +0.000 C 
ATOM     19  C   UNL     1      62.007  61.630  63.826  0.00  0.00    +0.000 C 
ATOM     20  C   UNL     1      61.327  61.197  63.999  0.00  0.00    +0.000 C 
ATOM     21  C   UNL     1      60.983  61.249  64.747  0.00  0.00    +0.000 C 
ATOM     22  C   UNL     1      61.663  61.761  64.766  0.00  0.00    +0.000 C 
ATOM     23  C   UNL     1      61.320  61.736  65.323  0.00  0.00    +0.000 C 
ATOM     24  C   UNL     1      61.107  61.898  66.103  0.00  0.00    +0.000 C 
ENDROOT
TORSDOF 0
ENDMDL
MODEL 2
REMARK VINA RESULT:   -12.307      2.387      5.050
REMARK INTER + INTRA:         -12.307
REMARK INTER:                 -12.307
REMARK INTRA:                   0.000
REMARK UNBOUND:                 0.000
ROOT
REMARK  Name = tripamide
REMARK                            x       y       z     vdW  Elec       q    Type
REMARK                         _______ _______ _______ _____ _____    ______ ____
ATOM      1  N   UNL     1      60.480  60.460  64.212  0.00  0.00    +0.000 NA
ATOM      2  S   UNL     1      60.916  61.045  64.596  0.00  0.00    +0.000 S 
ATOM      3  O   UNL     1      60.541  60.857  65.306  0.00  0.00    +0.000 OA
ATOM      4  O   UNL     1      61.291  61.233  63.885  0.00  0.00    +0.000 OA
ATOM      5  C   UNL     1      61.352  61.630  64.981  0.00  0.00    +0.000 A 
ATOM      6  C   UNL     1      61.895  62.085  64.558  0.00  0.00    +0.000 A 
ATOM      7 CL   UNL     1      62.002  61.955  63.750  0.00  0.00    +0.000 Cl
ATOM      8  C   UNL     1      62.331  62.670  64.943  0.00  0.00    +0.000 A 
ATOM      9  C   UNL     1      62.225  62.800  65.751  0.00  0.00    +0.000 A 
ATOM     10  C   UNL     1      61.682  62.345  66.173  0.00  0.00    +0.000 A 
ATOM     11  C   UNL     1      61.245  61.760  65.789  0.00  0.00    +0.000 A 
ATOM     12  C   UNL     1      61.575  62.475  66.981  0.00  0.00    +0.000 C 
ATOM     13  O   UNL     1      62.011  63.060  67.365  0.00  0.00    +0.000 OA
ATOM     14  N   UNL     1      61.032  62.020  67.403  0.00  0.00    +0.000 NA
ATOM     15  N   UNL     1      60.926  62.150  68.211  0.00  0.00    +0.000 NA
ATOM     16  C   UNL     1      60.406  61.741  68.704  0.00  0.00    +0.000 C 
ATOM     17  C   UNL     1      60.479  62.051  69.465  0.00  0.00    +0.000 C 
ATOM     18  C   UNL     1      60.105  61.864  70.177  0.00  0.00    +0.000 C 
ATOM     19  C   UNL     1      60.295  62.276  70.864  0.00  0.00    +0.000 C 
ATOM     20  C   UNL     1      60.860  62.876  70.842  0.00  0.00    +0.000 C 
ATOM     21  C   UNL     1      61.235  63.064  70.132  0.00  0.00    +0.000 C 
ATOM     22  C   UNL     1      60.696  62.431  69.952  0.00  0.00    +0.000 C 
ATOM     23  C   UNL     1      61.045  62.651  69.443  0.00  0.00    +0.000 C 
ATOM     24  C   UNL     1      61.321  62.713  68.668  0.00  0.00    +0.000 C 
ENDROOT
TORSDOF 0
ENDMDL
MODEL 3
REMARK VINA RESULT:   -11.941      3.705      5.343
REMARK INTER + INTRA:         -11.941
REMARK INTER:                 -11.941
REMARK INTRA:                   0.000
REMARK UNBOUND:                 0.000
ROOT
REMARK  Name = tripamide
REMARK                            x       y       z     vdW  Elec       q    Type
REMARK                         _______ _______ _______ _____ _____    ______ ____
ATOM      1  N   UNL     1      60.487  62.081  68.841  0.00  0.00    +0.000 NA
ATOM      2  S   UNL     1      60.746  62.370  69.568  0.00  0.00    +0.000 S 
ATOM      3  O   UNL     1      61.277  62.867  69.180  0.00  0.00    +0.000 OA
ATOM      4  O   UNL     1      60.214  61.871  69.956  0.00  0.00    +0.000 OA
ATOM      5  C   UNL     1      61.005  62.659  70.295  0.00  0.00    +0.000 A 
ATOM      6  C   UNL     1      60.674  62.372  70.995  0.00  0.00    +0.000 A 
ATOM      7 CL   UNL     1      60.084  61.796  70.966  0.00  0.00    +0.000 Cl
ATOM      8  C   UNL     1      60.934  62.662  71.723  0.00  0.00    +0.000 A 
ATOM      9  C   UNL     1      61.524  63.238  71.751  0.00  0.00    +0.000 A 
ATOM     10  C   UNL     1      61.854  63.524  71.052  0.00  0.00    +0.000 A 
ATOM     11  C   UNL     1      61.596  63.235  70.324  0.00  0.00    +0.000 A 
ATOM     12  C   UNL     1      62.444  64.100  71.081  0.00  0.00    +0.000 C 
ATOM     13  O   UNL     1      62.703  64.389  71.809  0.00  0.00    +0.000 OA
ATOM     14  N   UNL     1      62.775  64.386  70.381  0.00  0.00    +0.000 NA
ATOM     15  N   UNL     1      63.365  64.962  70.410  0.00  0.00    +0.000 NA
ATOM     16  C   UNL     1      63.745  65.299  69.761  0.00  0.00    +0.000 C 
ATOM     17  C   UNL     1      64.294  65.848  70.043  0.00  0.00    +0.000 C 
ATOM     18  C   UNL     1      64.826  66.346  69.656  0.00  0.00    +0.000 C 
ATOM     19  C   UNL     1      65.316  66.845  70.092  0.00  0.00    +0.000 C 
ATOM     20  C   UNL     1      65.275  66.847  70.916  0.00  0.00    +0.000 C 
ATOM     21  C   UNL     1      64.743  66.349  71.304  0.00  0.00    +0.000 C 
ATOM     22  C   UNL     1      64.637  66.203  70.472  0.00  0.00    +0.000 C 
ATOM     23  C   UNL     1      64.252  65.849  70.867  0.00  0.00    +0.000 C 
ATOM     24  C   UNL     1      63.678  65.302  71.094  0.00  0.00    +0.000 C 
ENDROOT
TORSDOF 0
ENDMDL
MODEL 4
REMARK VINA RESULT:   -11.820      1.617      2.197
REMARK INTER + INTRA:         -11.820
REMARK INTER:                 -11.820
REMARK INTRA:                   0.000
REMARK UNBOUND:                 0.000
ROOT
REMARK  Name = tripamide
REMARK                            x       y       z     vdW  Elec       q    Type
REMARK                         _______ _______ _______ _____ _____    ______ ____
ATOM      1  N   UNL     1      64.572  64.678  70.041  0.00  0.00    +0.000 NA
ATOM      2  S   UNL     1      63.758  64.598  70.147  0.00  0.00    +0.000 S 
ATOM      3  O   UNL     1      63.699  64.234  69.409  0.00  0.00    +0.000 OA
ATOM      4  O   UNL     1      63.818  64.962  70.885  0.00  0.00    +0.000 OA
ATOM      5  C   UNL     1      62.944  64.517  70.251  0.00  0.00    +0.000 A 
ATOM      6  C   UNL     1      62.588  64.792  70.944  0.00  0.00    +0.000 A 
ATOM      7 CL   UNL     1      63.047  65.148  71.530  0.00  0.00    +0.000 Cl
ATOM      8  C   UNL     1      61.774  64.712  71.049  0.00  0.00    +0.000 A 
ATOM      9  C   UNL     1      61.315  64.356  70.462  0.00  0.00    +0.000 A 
ATOM     10  C   UNL     1      61.671  64.081  69.771  0.00  0.00    +0.000 A 
ATOM     11  C   UNL     1      62.485  64.162  69.665  0.00  0.00    +0.000 A 
ATOM     12  C   UNL     1      61.212  63.726  69.184  0.00  0.00    +0.000 C 
ATOM     13  O   UNL     1      60.399  63.646  69.290  0.00  0.00    +0.000 OA
ATOM     14  N   UNL     1      61.569  63.451  68.493  0.00  0.00    +0.000 NA
ATOM     15  N   UNL     1      61.110  63.096  67.906  0.00  0.00    +0.000 NA
ATOM     16  C   UNL     1      61.387  62.796  67.189  0.00  0.00    +0.000 C 
ATOM     17  C   UNL     1      60.741  62.493  66.774  0.00  0.00    +0.000 C 
ATOM     18  C   UNL     1      60.681  62.128  66.036  0.00  0.00    +0.000 C 
ATOM     19  C   UNL     1      59.947  61.877  65.758  0.00  0.00    +0.000 C 
ATOM     20  C   UNL     1      59.271  61.989  66.218  0.00  0.00    +0.000 C 
ATOM     21  C   UNL     1      59.330  62.353  66.956  0.00  0.00    +0.000 C 
ATOM     22  C   UNL     1      60.122  62.330  66.642  0.00  0.00    +0.000 C 
ATOM     23  C   UNL     1      60.066  62.605  67.234  0.00  0.00    +0.000 C 
ATOM     24  C   UNL     1      60.294  62.978  67.934  0.00  0.00    +0.000 C 
ENDROOT
TORSDOF 0
ENDMDL
MODEL 5
REMARK VINA RESULT:   -11.717      2.137      4.822
REMARK INTER + INTRA:         -11.717
REMARK INTER:                 -11.717
REMARK INTRA:                   0.000
REMARK UNBOUND:                 0.000
ROOT
REMARK  Name = tripamide
REMARK                            x       y       z     vdW  Elec       q    Type
REMARK                         _______ _______ _______ _____ _____    ______ ____
ATOM      1  N   UNL     1      62.357  62.180  64.845  0.00  0.00    +0.000 NA
ATOM      2  S   UNL     1      61.776  62.241  65.427  0.00  0.00    +0.000 S 
ATOM      3  O   UNL     1      62.324  62.591  65.936  0.00  0.00    +0.000 OA
ATOM      4  O   UNL     1      61.229  61.892  64.918  0.00  0.00    +0.000 OA
ATOM      5  C   UNL     1      61.196  62.303  66.010  0.00  0.00    +0.000 A 
ATOM      6  C   UNL     1      60.431  62.031  65.860  0.00  0.00    +0.000 A 
ATOM      7 CL   UNL     1      60.248  61.698  65.128  0.00  0.00    +0.000 Cl
ATOM      8  C   UNL     1      59.850  62.093  66.443  0.00  0.00    +0.000 A 
ATOM      9  C   UNL     1      60.034  62.426  67.175  0.00  0.00    +0.000 A 
ATOM     10  C   UNL     1      60.798  62.697  67.324  0.00  0.00    +0.000 A 
ATOM     11  C   UNL     1      61.379  62.636  66.742  0.00  0.00    +0.000 A 
ATOM     12  C   UNL     1      60.981  63.031  68.056  0.00  0.00    +0.000 C 
ATOM     13  O   UNL     1      60.400  63.092  68.638  0.00  0.00    +0.000 OA
ATOM     14  N   UNL     1      61.746  63.302  68.205  0.00  0.00    +0.000 NA
ATOM     15  N   UNL     1      61.929  63.636  68.937  0.00  0.00    +0.000 NA
ATOM     16  C   UNL     1      62.665  63.930  69.166  0.00  0.00    +0.000 C 
ATOM     17  C   UNL     1      62.599  64.209  69.940  0.00  0.00    +0.000 C 
ATOM     18  C   UNL     1      63.146  64.559  70.449  0.00  0.00    +0.000 C 
ATOM     19  C   UNL     1      62.917  64.786  71.208  0.00  0.00    +0.000 C 
ATOM     20  C   UNL     1      62.140  64.665  71.458  0.00  0.00    +0.000 C 
ATOM     21  C   UNL     1      61.593  64.316  70.949  0.00  0.00    +0.000 C 
ATOM     22  C   UNL     1      62.324  64.354  70.515  0.00  0.00    +0.000 C 
ATOM     23  C   UNL     1      61.823  64.088  70.189  0.00  0.00    +0.000 C 
ATOM     24  C   UNL     1      61.408  63.733  69.570  0.00  0.00    +0.000 C 
ENDROOT
TORSDOF 0
ENDMDL
MODEL 6
REMARK VINA RESULT:   -11.202      4.005      5.192
REMARK INTER + INTRA:         -11.202
REMARK INTER:                 -11.202
REMARK INTRA:                   0.000
REMARK UNBOUND:                 0.000
ROOT
REMARK  Name = tripamide
REMARK                            x       y       z     vdW  Elec       q    Type
REMARK                         _______ _______ _______ _____ _____    ______ ____
ATOM      1  N   UNL     1      65.373  66.640  69.843  0.00  0.00    +0.000 NA
ATOM      2  S   UNL     1      64.817  66.531  70.442  0.00  0.00    +0.000 S 
ATOM      3  O   UNL     1      64.511  65.880  70.037  0.00  0.00    +0.000 OA
ATOM      4  O   UNL     1      65.124  67.182  70.846  0.00  0.00    +0.000 OA
ATOM      5  C   UNL     1      64.261  66.420  71.040  0.00  0.00    +0.000 A 
ATOM      6  C   UNL     1      64.248  66.930  71.690  0.00  0.00    +0.000 A 
ATOM      7 CL   UNL     1      64.791  67.548  71.741  0.00  0.00    +0.000 Cl
ATOM      8  C   UNL     1      63.691  66.819  72.289  0.00  0.00    +0.000 A 
ATOM      9  C   UNL     1      63.147  66.201  72.239  0.00  0.00    +0.000 A 
ATOM     10  C   UNL     1      63.160  65.693  71.590  0.00  0.00    +0.000 A 
ATOM     11  C   UNL     1      63.717  65.802  70.990  0.00  0.00    +0.000 A 
ATOM     12  C   UNL     1      62.617  65.074  71.539  0.00  0.00    +0.000 C 
ATOM     13  O   UNL     1      62.061  64.965  72.138  0.00  0.00    +0.000 OA
ATOM     14  N   UNL     1      62.630  64.566  70.889  0.00  0.00    +0.000 NA
ATOM     15  N   UNL     1      62.086  63.947  70.839  0.00  0.00    +0.000 NA
ATOM     16  C   UNL     1      62.033  63.398  70.227  0.00  0.00    +0.000 C 
ATOM     17  C   UNL     1      61.414  62.880  70.401  0.00  0.00    +0.000 C 
ATOM     18  C   UNL     1      61.107  62.229  69.998  0.00  0.00    +0.000 C 
ATOM     19  C   UNL     1      60.472  61.809  70.314  0.00  0.00    +0.000 C 
ATOM     20  C   UNL     1      60.143  62.039  71.035  0.00  0.00    +0.000 C 
ATOM     21  C   UNL     1      60.449  62.690  71.439  0.00  0.00    +0.000 C 
ATOM     22  C   UNL     1      60.915  62.614  70.730  0.00  0.00    +0.000 C 
ATOM     23  C   UNL     1      61.085  63.111  71.122  0.00  0.00    +0.000 C 
ATOM     24  C   UNL     1      61.501  63.770  71.393  0.00  0.00    +0.000 C 
ENDROOT
TORSDOF 0
ENDMDL
MODEL 7
REMARK VINA RESULT:   -10.448      3.283      5.907
REMARK INTER + INTRA:         -10.448
REMARK INTER:                 -10.448
REMARK INTRA:                   0.000
REMARK UNBOUND:                 0.000
ROOT
REMARK  Name = tripamide
REMARK                            x       y       z     vdW  Elec       q    Type
REMARK                         _______ _______ _______ _____ _____    ______ ____
ATOM      1  N   UNL     1      59.430  65.629  69.182  0.00  0.00    +0.000 NA
ATOM      2  S   UNL     1      60.129  65.192  69.166  0.00  0.00    +0.000 S 
ATOM      3  O   UNL     1      60.505  65.779  69.606  0.00  0.00    +0.000 OA
ATOM      4  O   UNL     1      59.752  64.604  68.726  0.00  0.00    +0.000 OA
ATOM      5  C   UNL     1      60.828  64.755  69.151  0.00  0.00    +0.000 A 
ATOM      6  C   UNL     1      60.852  64.027  68.762  0.00  0.00    +0.000 A 
ATOM      7 CL   UNL     1      60.176  63.737  68.388  0.00  0.00    +0.000 Cl
ATOM      8  C   UNL     1      61.551  63.591  68.747  0.00  0.00    +0.000 A 
ATOM      9  C   UNL     1      62.227  63.880  69.120  0.00  0.00    +0.000 A 
ATOM     10  C   UNL     1      62.204  64.607  69.509  0.00  0.00    +0.000 A 
ATOM     11  C   UNL     1      61.504  65.045  69.525  0.00  0.00    +0.000 A 
ATOM     12  C   UNL     1      62.880  64.897  69.883  0.00  0.00    +0.000 C 
ATOM     13  O   UNL     1      63.578  64.460  69.867  0.00  0.00    +0.000 OA
ATOM     14  N   UNL     1      62.856  65.625  70.271  0.00  0.00    +0.000 NA
ATOM     15  N   UNL     1      63.532  65.915  70.645  0.00  0.00    +0.000 NA
ATOM     16  C   UNL     1      63.592  66.629  71.053  0.00  0.00    +0.000 C 
ATOM     17  C   UNL     1      64.364  66.697  71.336  0.00  0.00    +0.000 C 
ATOM     18  C   UNL     1      64.741  67.284  71.777  0.00  0.00    +0.000 C 
ATOM     19  C   UNL     1      65.535  67.199  71.983  0.00  0.00    +0.000 C 
ATOM     20  C   UNL     1      65.952  66.527  71.750  0.00  0.00    +0.000 C 
ATOM     21  C   UNL     1      65.576  65.939  71.310  0.00  0.00    +0.000 C 
ATOM     22  C   UNL     1      64.989  66.540  71.450  0.00  0.00    +0.000 C 
ATOM     23  C   UNL     1      64.781  66.024  71.103  0.00  0.00    +0.000 C 
ATOM     24  C   UNL     1      64.267  65.541  70.675  0.00  0.00    +0.000 C 
ENDROOT
TORSDOF 0
ENDMDL
MODEL 8
REMARK VINA RESULT:   -10.240      3.236      6.229
REMARK INTER + INTRA:         -10.240
REMARK INTER:                 -10.240
REMARK INTRA:                   0.000
REMARK UNBOUND:                 0.000
ROOT
REMARK  Name = tripamide
REMARK                            x       y       z     vdW  Elec       q    Type
REMARK                         _______ _______ _______ _____ _____    ______ ____
ATOM      1  N   UNL     1      60.677  61.204  70.138  0.00  0.00    +0.000 NA
ATOM      2  S   UNL     1      60.572  61.947  69.798  0.00  0.00    +0.000 S 
ATOM      3  O   UNL     1      60.345  62.250  70.531  0.00  0.00    +0.000 OA
ATOM      4  O   UNL     1      60.799  61.644  69.064  0.00  0.00    +0.000 OA
ATOM      5  C   UNL     1      60.466  62.691  69.458  0.00  0.00    +0.000 A 
ATOM      6  C   UNL     1      60.609  62.801  68.652  0.00  0.00    +0.000 A 
ATOM      7 CL   UNL     1      60.859  62.166  68.188  0.00  0.00    +0.000 Cl
ATOM      8  C   UNL     1      60.503  63.545  68.313  0.00  0.00    +0.000 A 
ATOM      9  C   UNL     1      60.254  64.180  68.777  0.00  0.00    +0.000 A 
ATOM     10  C   UNL     1      60.111  64.070  69.582  0.00  0.00    +0.000 A 
ATOM     11  C   UNL     1      60.217  63.326  69.923  0.00  0.00    +0.000 A 
ATOM     12  C   UNL     1      59.862  64.704  70.046  0.00  0.00    +0.000 C 
ATOM     13  O   UNL     1      59.756  65.448  69.706  0.00  0.00    +0.000 OA
ATOM     14  N   UNL     1      59.718  64.594  70.851  0.00  0.00    +0.000 NA
ATOM     15  N   UNL     1      59.469  65.229  71.316  0.00  0.00    +0.000 NA
ATOM     16  C   UNL     1      59.305  65.203  72.124  0.00  0.00    +0.000 C 
ATOM     17  C   UNL     1      59.075  65.959  72.362  0.00  0.00    +0.000 C 
ATOM     18  C   UNL     1      58.848  66.263  73.095  0.00  0.00    +0.000 C 
ATOM     19  C   UNL     1      58.643  67.058  73.167  0.00  0.00    +0.000 C 
ATOM     20  C   UNL     1      58.664  67.551  72.505  0.00  0.00    +0.000 C 
ATOM     21  C   UNL     1      58.891  67.249  71.772  0.00  0.00    +0.000 C 
ATOM     22  C   UNL     1      58.932  66.596  72.318  0.00  0.00    +0.000 C 
ATOM     23  C   UNL     1      59.096  66.452  71.700  0.00  0.00    +0.000 C 
ATOM     24  C   UNL     1      59.340  66.001  71.054  0.00  0.00    +0.000 C 
ENDROOT
TORSDOF 0
ENDMDL
MODEL 9
REMARK VINA RESULT:   -10.208      5.619      6.756
REMARK INTER + INTRA:         -10.208
REMARK INTER:                 -10.208
REMARK INTRA:                   0.000
REMARK UNBOUND:                 0.000
ROOT
REMARK  Name = tripamide
REMARK                            x       y       z     vdW  Elec       q    Type
REMARK                         _______ _______ _______ _____ _____    ______ ____
ATOM      1  N   UNL     1      64.931  65.214  69.747  0.00  0.00    +0.000 NA
ATOM      2  S   UNL     1      64.631  65.677  70.359  0.00  0.00    +0.000 S 
ATOM      3  O   UNL     1      63.913  65.275  70.311  0.00  0.00    +0.000 OA
ATOM      4  O   UNL     1      65.351  66.080  70.408  0.00  0.00    +0.000 OA
ATOM      5  C   UNL     1      64.330  66.140  70.972  0.00  0.00    +0.000 A 
ATOM      6  C   UNL     1      64.803  66.721  71.321  0.00  0.00    +0.000 A 
ATOM      7 CL   UNL     1      65.576  66.837  71.056  0.00  0.00    +0.000 Cl
ATOM      8  C   UNL     1      64.502  67.184  71.933  0.00  0.00    +0.000 A 
ATOM      9  C   UNL     1      63.730  67.067  72.198  0.00  0.00    +0.000 A 
ATOM     10  C   UNL     1      63.258  66.488  71.850  0.00  0.00    +0.000 A 
ATOM     11  C   UNL     1      63.558  66.024  71.237  0.00  0.00    +0.000 A 
ATOM     12  C   UNL     1      62.485  66.371  72.114  0.00  0.00    +0.000 C 
ATOM     13  O   UNL     1      62.185  66.834  72.727  0.00  0.00    +0.000 OA
ATOM     14  N   UNL     1      62.013  65.791  71.766  0.00  0.00    +0.000 NA
ATOM     15  N   UNL     1      61.241  65.674  72.030  0.00  0.00    +0.000 NA
ATOM     16  C   UNL     1      60.706  65.119  71.737  0.00  0.00    +0.000 C 
ATOM     17  C   UNL     1      60.002  65.194  72.160  0.00  0.00    +0.000 C 
ATOM     18  C   UNL     1      59.282  64.792  72.113  0.00  0.00    +0.000 C 
ATOM     19  C   UNL     1      58.663  64.992  72.619  0.00  0.00    +0.000 C 
ATOM     20  C   UNL     1      58.762  65.595  73.174  0.00  0.00    +0.000 C 
ATOM     21  C   UNL     1      59.481  65.997  73.222  0.00  0.00    +0.000 C 
ATOM     22  C   UNL     1      59.575  65.423  72.601  0.00  0.00    +0.000 C 
ATOM     23  C   UNL     1      60.101  65.797  72.715  0.00  0.00    +0.000 C 
ATOM     24  C   UNL     1      60.867  66.094  72.635  0.00  0.00    +0.000 C 
ENDROOT
TORSDOF 0
ENDMDL
