MODEL 1
REMARK VINA RESULT:    -5.415      0.000      0.000
REMARK INTER + INTRA:          -5.415
REMARK INTER:                  -5.415
REMARK INTRA:                   0.000
REMARK UNBOUND:                 0.000
ROOT
REMARK  Name = trolamine
REMARK                            x       y       z     vdW  Elec       q    Type
REMARK                         _______ _______ _______ _____ _____    ______ ____
ATOM      1  O   UNL     1      61.624  63.118  67.243  0.00  0.00    +0.000 OA
ATOM      2  C   UNL     1      61.467  62.652  66.581  0.00  0.00    +0.000 C 
ATOM      3  C   UNL     1      61.985  62.658  65.939  0.00  0.00    +0.000 C 
ATOM      4  N   UNL     1      61.828  62.192  65.277  0.00  0.00    +0.000 NA
ATOM      5  C   UNL     1      62.347  62.199  64.635  0.00  0.00    +0.000 C 
ATOM      6  C   UNL     1      62.190  61.734  63.973  0.00  0.00    +0.000 C 
ATOM      7  O   UNL     1      62.709  61.740  63.331  0.00  0.00    +0.000 OA
ATOM      8  C   UNL     1      61.153  61.720  65.256  0.00  0.00    +0.000 C 
ATOM      9  C   UNL     1      60.995  61.254  64.593  0.00  0.00    +0.000 C 
ATOM     10  O   UNL     1      60.320  60.781  64.571  0.00  0.00    +0.000 OA
ENDROOT
TORSDOF 0
ENDMDL
MODEL 2
REMARK VINA RESULT:    -5.267      0.582      2.489
REMARK INTER + INTRA:          -5.267
REMARK INTER:                  -5.267
REMARK INTRA:                   0.000
REMARK UNBOUND:                 0.000
ROOT
REMARK  Name = trolamine
REMARK                            x       y       z     vdW  Elec       q    Type
REMARK                         _______ _______ _______ _____ _____    ______ ____
ATOM      1  O   UNL     1      62.679  61.632  63.363  0.00  0.00    +0.000 OA
ATOM      2  C   UNL     1      62.127  61.716  63.971  0.00  0.00    +0.000 C 
ATOM      3  C   UNL     1      62.342  62.087  64.675  0.00  0.00    +0.000 C 
ATOM      4  N   UNL     1      61.790  62.170  65.283  0.00  0.00    +0.000 NA
ATOM      5  C   UNL     1      62.006  62.542  65.987  0.00  0.00    +0.000 C 
ATOM      6  C   UNL     1      61.454  62.626  66.595  0.00  0.00    +0.000 C 
ATOM      7  O   UNL     1      61.669  62.997  67.300  0.00  0.00    +0.000 OA
ATOM      8  C   UNL     1      61.024  61.883  65.186  0.00  0.00    +0.000 C 
ATOM      9  C   UNL     1      60.472  61.966  65.793  0.00  0.00    +0.000 C 
ATOM     10  O   UNL     1      59.705  61.679  65.697  0.00  0.00    +0.000 OA
ENDROOT
TORSDOF 0
ENDMDL
MODEL 3
REMARK VINA RESULT:    -5.076      0.602      1.625
REMARK INTER + INTRA:          -5.076
REMARK INTER:                  -5.076
REMARK INTRA:                   0.000
REMARK UNBOUND:                 0.000
ROOT
REMARK  Name = trolamine
REMARK                            x       y       z     vdW  Elec       q    Type
REMARK                         _______ _______ _______ _____ _____    ______ ____
ATOM      1  O   UNL     1      61.295  63.303  67.550  0.00  0.00    +0.000 OA
ATOM      2  C   UNL     1      61.492  63.025  66.799  0.00  0.00    +0.000 C 
ATOM      3  C   UNL     1      61.036  62.435  66.444  0.00  0.00    +0.000 C 
ATOM      4  N   UNL     1      61.233  62.157  65.693  0.00  0.00    +0.000 NA
ATOM      5  C   UNL     1      60.777  61.567  65.340  0.00  0.00    +0.000 C 
ATOM      6  C   UNL     1      60.973  61.289  64.588  0.00  0.00    +0.000 C 
ATOM      7  O   UNL     1      60.517  60.699  64.234  0.00  0.00    +0.000 OA
ATOM      8  C   UNL     1      61.884  62.469  65.296  0.00  0.00    +0.000 C 
ATOM      9  C   UNL     1      62.081  62.191  64.544  0.00  0.00    +0.000 C 
ATOM     10  O   UNL     1      62.732  62.502  64.146  0.00  0.00    +0.000 OA
ENDROOT
TORSDOF 0
ENDMDL
MODEL 4
REMARK VINA RESULT:    -4.865      1.981      2.550
REMARK INTER + INTRA:          -4.865
REMARK INTER:                  -4.865
REMARK INTRA:                   0.000
REMARK UNBOUND:                 0.000
ROOT
REMARK  Name = trolamine
REMARK                            x       y       z     vdW  Elec       q    Type
REMARK                         _______ _______ _______ _____ _____    ______ ____
ATOM      1  O   UNL     1      60.654  61.997  69.651  0.00  0.00    +0.000 OA
ATOM      2  C   UNL     1      60.449  62.081  68.856  0.00  0.00    +0.000 C 
ATOM      3  C   UNL     1      61.029  62.253  68.296  0.00  0.00    +0.000 C 
ATOM      4  N   UNL     1      60.824  62.337  67.501  0.00  0.00    +0.000 NA
ATOM      5  C   UNL     1      61.406  62.509  66.942  0.00  0.00    +0.000 C 
ATOM      6  C   UNL     1      61.201  62.593  66.147  0.00  0.00    +0.000 C 
ATOM      7  O   UNL     1      61.782  62.765  65.586  0.00  0.00    +0.000 OA
ATOM      8  C   UNL     1      60.039  62.250  67.267  0.00  0.00    +0.000 C 
ATOM      9  C   UNL     1      59.834  62.334  66.472  0.00  0.00    +0.000 C 
ATOM     10  O   UNL     1      59.048  62.246  66.237  0.00  0.00    +0.000 OA
ENDROOT
TORSDOF 0
ENDMDL
MODEL 5
REMARK VINA RESULT:    -4.642      2.099      3.898
REMARK INTER + INTRA:          -4.642
REMARK INTER:                  -4.642
REMARK INTRA:                   0.000
REMARK UNBOUND:                 0.000
ROOT
REMARK  Name = trolamine
REMARK                            x       y       z     vdW  Elec       q    Type
REMARK                         _______ _______ _______ _____ _____    ______ ____
ATOM      1  O   UNL     1      61.995  62.400  65.811  0.00  0.00    +0.000 OA
ATOM      2  C   UNL     1      61.610  62.371  66.540  0.00  0.00    +0.000 C 
ATOM      3  C   UNL     1      61.341  63.066  66.894  0.00  0.00    +0.000 C 
ATOM      4  N   UNL     1      60.956  63.036  67.623  0.00  0.00    +0.000 NA
ATOM      5  C   UNL     1      60.688  63.732  67.976  0.00  0.00    +0.000 C 
ATOM      6  C   UNL     1      60.303  63.702  68.705  0.00  0.00    +0.000 C 
ATOM      7  O   UNL     1      60.034  64.398  69.059  0.00  0.00    +0.000 OA
ATOM      8  C   UNL     1      60.840  62.311  67.998  0.00  0.00    +0.000 C 
ATOM      9  C   UNL     1      60.455  62.281  68.727  0.00  0.00    +0.000 C 
ATOM     10  O   UNL     1      60.337  61.557  69.103  0.00  0.00    +0.000 OA
ENDROOT
TORSDOF 0
ENDMDL
MODEL 6
REMARK VINA RESULT:    -4.562      2.846      4.123
REMARK INTER + INTRA:          -4.562
REMARK INTER:                  -4.562
REMARK INTRA:                   0.000
REMARK UNBOUND:                 0.000
ROOT
REMARK  Name = trolamine
REMARK                            x       y       z     vdW  Elec       q    Type
REMARK                         _______ _______ _______ _____ _____    ______ ____
ATOM      1  O   UNL     1      60.258  61.573  70.779  0.00  0.00    +0.000 OA
ATOM      2  C   UNL     1      60.603  62.048  70.200  0.00  0.00    +0.000 C 
ATOM      3  C   UNL     1      60.481  61.880  69.401  0.00  0.00    +0.000 C 
ATOM      4  N   UNL     1      60.827  62.355  68.822  0.00  0.00    +0.000 NA
ATOM      5  C   UNL     1      60.704  62.186  68.023  0.00  0.00    +0.000 C 
ATOM      6  C   UNL     1      61.049  62.661  67.444  0.00  0.00    +0.000 C 
ATOM      7  O   UNL     1      60.926  62.493  66.645  0.00  0.00    +0.000 OA
ATOM      8  C   UNL     1      61.295  62.997  69.041  0.00  0.00    +0.000 C 
ATOM      9  C   UNL     1      61.640  63.472  68.461  0.00  0.00    +0.000 C 
ATOM     10  O   UNL     1      62.109  64.115  68.680  0.00  0.00    +0.000 OA
ENDROOT
TORSDOF 0
ENDMDL
MODEL 7
REMARK VINA RESULT:    -4.505      6.635      7.347
REMARK INTER + INTRA:          -4.505
REMARK INTER:                  -4.505
REMARK INTRA:                   0.000
REMARK UNBOUND:                 0.000
ROOT
REMARK  Name = trolamine
REMARK                            x       y       z     vdW  Elec       q    Type
REMARK                         _______ _______ _______ _____ _____    ______ ____
ATOM      1  O   UNL     1      59.785  64.003  71.624  0.00  0.00    +0.000 OA
ATOM      2  C   UNL     1      59.682  64.797  71.426  0.00  0.00    +0.000 C 
ATOM      3  C   UNL     1      59.753  65.039  70.641  0.00  0.00    +0.000 C 
ATOM      4  N   UNL     1      59.649  65.833  70.443  0.00  0.00    +0.000 NA
ATOM      5  C   UNL     1      59.720  66.074  69.657  0.00  0.00    +0.000 C 
ATOM      6  C   UNL     1      59.617  66.868  69.458  0.00  0.00    +0.000 C 
ATOM      7  O   UNL     1      59.688  67.110  68.672  0.00  0.00    +0.000 OA
ATOM      8  C   UNL     1      59.475  66.385  71.030  0.00  0.00    +0.000 C 
ATOM      9  C   UNL     1      59.372  67.179  70.831  0.00  0.00    +0.000 C 
ATOM     10  O   UNL     1      59.197  67.732  71.418  0.00  0.00    +0.000 OA
ENDROOT
TORSDOF 0
ENDMDL
MODEL 8
REMARK VINA RESULT:    -4.398     11.326     11.981
REMARK INTER + INTRA:          -4.398
REMARK INTER:                  -4.398
REMARK INTRA:                   0.000
REMARK UNBOUND:                 0.000
ROOT
REMARK  Name = trolamine
REMARK                            x       y       z     vdW  Elec       q    Type
REMARK                         _______ _______ _______ _____ _____    ______ ____
ATOM      1  O   UNL     1      64.537  62.137  54.076  0.00  0.00    +0.000 OA
ATOM      2  C   UNL     1      64.214  61.378  54.105  0.00  0.00    +0.000 C 
ATOM      3  C   UNL     1      64.228  60.898  53.434  0.00  0.00    +0.000 C 
ATOM      4  N   UNL     1      63.906  60.140  53.462  0.00  0.00    +0.000 NA
ATOM      5  C   UNL     1      63.920  59.661  52.791  0.00  0.00    +0.000 C 
ATOM      6  C   UNL     1      63.597  58.902  52.819  0.00  0.00    +0.000 C 
ATOM      7  O   UNL     1      63.612  58.422  52.147  0.00  0.00    +0.000 OA
ATOM      8  C   UNL     1      63.569  59.861  54.161  0.00  0.00    +0.000 C 
ATOM      9  C   UNL     1      63.246  59.102  54.189  0.00  0.00    +0.000 C 
ATOM     10  O   UNL     1      62.909  58.823  54.888  0.00  0.00    +0.000 OA
ENDROOT
TORSDOF 0
ENDMDL
MODEL 9
REMARK VINA RESULT:    -4.358     11.411     12.146
REMARK INTER + INTRA:          -4.358
REMARK INTER:                  -4.358
REMARK INTRA:                   0.000
REMARK UNBOUND:                 0.000
ROOT
REMARK  Name = trolamine
REMARK                            x       y       z     vdW  Elec       q    Type
REMARK                         _______ _______ _______ _____ _____    ______ ____
ATOM      1  O   UNL     1      62.990  58.980  54.108  0.00  0.00    +0.000 OA
ATOM      2  C   UNL     1      63.399  59.583  53.721  0.00  0.00    +0.000 C 
ATOM      3  C   UNL     1      63.611  60.267  54.131  0.00  0.00    +0.000 C 
ATOM      4  N   UNL     1      64.020  60.870  53.744  0.00  0.00    +0.000 NA
ATOM      5  C   UNL     1      64.231  61.554  54.155  0.00  0.00    +0.000 C 
ATOM      6  C   UNL     1      64.640  62.157  53.768  0.00  0.00    +0.000 C 
ATOM      7  O   UNL     1      64.851  62.842  54.179  0.00  0.00    +0.000 OA
ATOM      8  C   UNL     1      64.217  60.789  52.948  0.00  0.00    +0.000 C 
ATOM      9  C   UNL     1      64.626  61.393  52.561  0.00  0.00    +0.000 C 
ATOM     10  O   UNL     1      64.824  61.313  51.764  0.00  0.00    +0.000 OA
ENDROOT
TORSDOF 0
ENDMDL
