MODEL 1
REMARK VINA RESULT:   -12.976      0.000      0.000
REMARK INTER + INTRA:         -12.976
REMARK INTER:                 -12.976
REMARK INTRA:                   0.000
REMARK UNBOUND:                 0.000
ROOT
REMARK  Name = trovafloxacin
REMARK                            x       y       z     vdW  Elec       q    Type
REMARK                         _______ _______ _______ _____ _____    ______ ____
ATOM      1  N   UNL     1      61.483  61.713  66.348  0.00  0.00    +0.000 NA
ATOM      2  C   UNL     1      61.244  62.184  66.983  0.00  0.00    +0.000 C 
ATOM      3  C   UNL     1      60.883  62.869  67.267  0.00  0.00    +0.000 C 
ATOM      4  C   UNL     1      60.560  63.489  67.706  0.00  0.00    +0.000 C 
ATOM      5  N   UNL     1      60.669  63.317  68.506  0.00  0.00    +0.000 N 
ATOM      6  C   UNL     1      61.058  62.592  68.561  0.00  0.00    +0.000 C 
ATOM      7  C   UNL     1      61.191  62.315  67.795  0.00  0.00    +0.000 C 
ATOM      8  C   UNL     1      60.430  63.787  69.141  0.00  0.00    +0.000 A 
ATOM      9  C   UNL     1      60.043  64.504  69.000  0.00  0.00    +0.000 A 
ATOM     10  F   UNL     1      59.897  64.748  68.225  0.00  0.00    +0.000 F 
ATOM     11  C   UNL     1      59.804  64.974  69.633  0.00  0.00    +0.000 A 
ATOM     12  C   UNL     1      59.951  64.730  70.407  0.00  0.00    +0.000 A 
ATOM     13  C   UNL     1      59.712  65.201  71.041  0.00  0.00    +0.000 A 
ATOM     14  O   UNL     1      59.325  65.916  70.900  0.00  0.00    +0.000 OA
ATOM     15  C   UNL     1      59.858  64.957  71.815  0.00  0.00    +0.000 A 
ATOM     16  C   UNL     1      60.245  64.241  71.955  0.00  0.00    +0.000 A 
ATOM     17  N   UNL     1      60.484  63.770  71.322  0.00  0.00    +0.000 N 
ATOM     18  C   UNL     1      60.870  63.055  71.463  0.00  0.00    +0.000 A 
ATOM     19  C   UNL     1      61.017  62.810  72.236  0.00  0.00    +0.000 A 
ATOM     20  F   UNL     1      60.777  63.281  72.870  0.00  0.00    +0.000 F 
ATOM     21  C   UNL     1      61.402  62.095  72.377  0.00  0.00    +0.000 A 
ATOM     22  C   UNL     1      61.642  61.624  71.744  0.00  0.00    +0.000 A 
ATOM     23  F   UNL     1      62.028  60.908  71.884  0.00  0.00    +0.000 F 
ATOM     24  C   UNL     1      61.495  61.869  70.969  0.00  0.00    +0.000 A 
ATOM     25  C   UNL     1      61.109  62.583  70.828  0.00  0.00    +0.000 A 
ATOM     26  C   UNL     1      60.337  64.014  70.547  0.00  0.00    +0.000 A 
ATOM     27  N   UNL     1      60.576  63.543  69.914  0.00  0.00    +0.000 NA
ATOM     28  C   UNL     1      59.619  65.428  72.449  0.00  0.00    +0.000 C 
ATOM     29  O   UNL     1      59.766  65.183  73.222  0.00  0.00    +0.000 OA
ATOM     30  O   UNL     1      59.233  66.143  72.308  0.00  0.00    +0.000 OA
ENDROOT
TORSDOF 0
ENDMDL
MODEL 2
REMARK VINA RESULT:   -12.947      1.480      2.953
REMARK INTER + INTRA:         -12.947
REMARK INTER:                 -12.947
REMARK INTRA:                   0.000
REMARK UNBOUND:                 0.000
ROOT
REMARK  Name = trovafloxacin
REMARK                            x       y       z     vdW  Elec       q    Type
REMARK                         _______ _______ _______ _____ _____    ______ ____
ATOM      1  N   UNL     1      59.508  62.195  65.780  0.00  0.00    +0.000 NA
ATOM      2  C   UNL     1      59.724  62.296  66.570  0.00  0.00    +0.000 C 
ATOM      3  C   UNL     1      60.019  61.985  67.275  0.00  0.00    +0.000 C 
ATOM      4  C   UNL     1      60.292  61.834  68.039  0.00  0.00    +0.000 C 
ATOM      5  N   UNL     1      60.245  62.537  68.469  0.00  0.00    +0.000 N 
ATOM      6  C   UNL     1      59.944  63.121  67.971  0.00  0.00    +0.000 C 
ATOM      7  C   UNL     1      59.804  62.781  67.233  0.00  0.00    +0.000 C 
ATOM      8  C   UNL     1      60.461  62.638  69.259  0.00  0.00    +0.000 A 
ATOM      9  C   UNL     1      60.756  61.999  69.690  0.00  0.00    +0.000 A 
ATOM     10  F   UNL     1      60.834  61.260  69.331  0.00  0.00    +0.000 F 
ATOM     11  C   UNL     1      60.973  62.099  70.479  0.00  0.00    +0.000 A 
ATOM     12  C   UNL     1      60.895  62.837  70.838  0.00  0.00    +0.000 A 
ATOM     13  C   UNL     1      61.111  62.938  71.628  0.00  0.00    +0.000 A 
ATOM     14  O   UNL     1      61.406  62.299  72.059  0.00  0.00    +0.000 OA
ATOM     15  C   UNL     1      61.033  63.676  71.986  0.00  0.00    +0.000 A 
ATOM     16  C   UNL     1      60.738  64.316  71.555  0.00  0.00    +0.000 A 
ATOM     17  N   UNL     1      60.522  64.215  70.766  0.00  0.00    +0.000 N 
ATOM     18  C   UNL     1      60.227  64.854  70.334  0.00  0.00    +0.000 A 
ATOM     19  C   UNL     1      60.149  65.593  70.692  0.00  0.00    +0.000 A 
ATOM     20  F   UNL     1      60.366  65.693  71.483  0.00  0.00    +0.000 F 
ATOM     21  C   UNL     1      59.855  66.231  70.262  0.00  0.00    +0.000 A 
ATOM     22  C   UNL     1      59.638  66.131  69.472  0.00  0.00    +0.000 A 
ATOM     23  F   UNL     1      59.343  66.770  69.041  0.00  0.00    +0.000 F 
ATOM     24  C   UNL     1      59.716  65.392  69.113  0.00  0.00    +0.000 A 
ATOM     25  C   UNL     1      60.011  64.754  69.544  0.00  0.00    +0.000 A 
ATOM     26  C   UNL     1      60.600  63.477  70.406  0.00  0.00    +0.000 A 
ATOM     27  N   UNL     1      60.383  63.376  69.617  0.00  0.00    +0.000 NA
ATOM     28  C   UNL     1      61.250  63.777  72.776  0.00  0.00    +0.000 C 
ATOM     29  O   UNL     1      61.172  64.515  73.135  0.00  0.00    +0.000 OA
ATOM     30  O   UNL     1      61.545  63.138  73.207  0.00  0.00    +0.000 OA
ENDROOT
TORSDOF 0
ENDMDL
MODEL 3
REMARK VINA RESULT:   -12.795      3.753      4.666
REMARK INTER + INTRA:         -12.795
REMARK INTER:                 -12.795
REMARK INTRA:                   0.000
REMARK UNBOUND:                 0.000
ROOT
REMARK  Name = trovafloxacin
REMARK                            x       y       z     vdW  Elec       q    Type
REMARK                         _______ _______ _______ _____ _____    ______ ____
ATOM      1  N   UNL     1      66.401  67.782  69.846  0.00  0.00    +0.000 NA
ATOM      2  C   UNL     1      65.806  67.242  70.032  0.00  0.00    +0.000 C 
ATOM      3  C   UNL     1      65.468  66.494  69.945  0.00  0.00    +0.000 C 
ATOM      4  C   UNL     1      65.011  65.807  69.969  0.00  0.00    +0.000 C 
ATOM      5  N   UNL     1      64.374  65.942  70.477  0.00  0.00    +0.000 N 
ATOM      6  C   UNL     1      64.437  66.712  70.767  0.00  0.00    +0.000 C 
ATOM      7  C   UNL     1      65.113  67.053  70.439  0.00  0.00    +0.000 C 
ATOM      8  C   UNL     1      63.778  65.402  70.663  0.00  0.00    +0.000 A 
ATOM      9  C   UNL     1      63.787  64.647  70.328  0.00  0.00    +0.000 A 
ATOM     10  F   UNL     1      64.392  64.434  69.809  0.00  0.00    +0.000 F 
ATOM     11  C   UNL     1      63.193  64.108  70.513  0.00  0.00    +0.000 A 
ATOM     12  C   UNL     1      62.589  64.321  71.032  0.00  0.00    +0.000 A 
ATOM     13  C   UNL     1      61.993  63.781  71.218  0.00  0.00    +0.000 A 
ATOM     14  O   UNL     1      62.002  63.027  70.884  0.00  0.00    +0.000 OA
ATOM     15  C   UNL     1      61.389  63.995  71.737  0.00  0.00    +0.000 A 
ATOM     16  C   UNL     1      61.380  64.750  72.071  0.00  0.00    +0.000 A 
ATOM     17  N   UNL     1      61.975  65.290  71.886  0.00  0.00    +0.000 N 
ATOM     18  C   UNL     1      61.966  66.044  72.220  0.00  0.00    +0.000 A 
ATOM     19  C   UNL     1      61.362  66.258  72.739  0.00  0.00    +0.000 A 
ATOM     20  F   UNL     1      60.766  65.718  72.925  0.00  0.00    +0.000 F 
ATOM     21  C   UNL     1      61.353  67.012  73.073  0.00  0.00    +0.000 A 
ATOM     22  C   UNL     1      61.948  67.552  72.888  0.00  0.00    +0.000 A 
ATOM     23  F   UNL     1      61.939  68.307  73.222  0.00  0.00    +0.000 F 
ATOM     24  C   UNL     1      62.553  67.338  72.369  0.00  0.00    +0.000 A 
ATOM     25  C   UNL     1      62.562  66.585  72.035  0.00  0.00    +0.000 A 
ATOM     26  C   UNL     1      62.580  65.076  71.367  0.00  0.00    +0.000 A 
ATOM     27  N   UNL     1      63.175  65.616  71.181  0.00  0.00    +0.000 NA
ATOM     28  C   UNL     1      60.793  63.455  71.922  0.00  0.00    +0.000 C 
ATOM     29  O   UNL     1      60.189  63.668  72.441  0.00  0.00    +0.000 OA
ATOM     30  O   UNL     1      60.802  62.700  71.588  0.00  0.00    +0.000 OA
ENDROOT
TORSDOF 0
ENDMDL
MODEL 4
REMARK VINA RESULT:   -12.724      2.554      3.885
REMARK INTER + INTRA:         -12.724
REMARK INTER:                 -12.724
REMARK INTRA:                   0.000
REMARK UNBOUND:                 0.000
ROOT
REMARK  Name = trovafloxacin
REMARK                            x       y       z     vdW  Elec       q    Type
REMARK                         _______ _______ _______ _____ _____    ______ ____
ATOM      1  N   UNL     1      63.767  67.386  72.486  0.00  0.00    +0.000 NA
ATOM      2  C   UNL     1      63.394  66.877  71.954  0.00  0.00    +0.000 C 
ATOM      3  C   UNL     1      63.106  66.722  71.196  0.00  0.00    +0.000 C 
ATOM      4  C   UNL     1      62.773  66.414  70.507  0.00  0.00    +0.000 C 
ATOM      5  N   UNL     1      62.498  65.654  70.674  0.00  0.00    +0.000 N 
ATOM      6  C   UNL     1      62.661  65.492  71.466  0.00  0.00    +0.000 C 
ATOM      7  C   UNL     1      63.037  66.152  71.790  0.00  0.00    +0.000 C 
ATOM      8  C   UNL     1      62.125  65.145  70.143  0.00  0.00    +0.000 A 
ATOM      9  C   UNL     1      61.998  65.384  69.362  0.00  0.00    +0.000 A 
ATOM     10  F   UNL     1      62.245  66.132  69.115  0.00  0.00    +0.000 F 
ATOM     11  C   UNL     1      61.626  64.876  68.831  0.00  0.00    +0.000 A 
ATOM     12  C   UNL     1      61.380  64.129  69.078  0.00  0.00    +0.000 A 
ATOM     13  C   UNL     1      61.007  63.620  68.546  0.00  0.00    +0.000 A 
ATOM     14  O   UNL     1      60.880  63.859  67.766  0.00  0.00    +0.000 OA
ATOM     15  C   UNL     1      60.760  62.873  68.793  0.00  0.00    +0.000 A 
ATOM     16  C   UNL     1      60.887  62.634  69.573  0.00  0.00    +0.000 A 
ATOM     17  N   UNL     1      61.259  63.142  70.105  0.00  0.00    +0.000 N 
ATOM     18  C   UNL     1      61.386  62.903  70.884  0.00  0.00    +0.000 A 
ATOM     19  C   UNL     1      61.139  62.156  71.132  0.00  0.00    +0.000 A 
ATOM     20  F   UNL     1      60.766  61.647  70.599  0.00  0.00    +0.000 F 
ATOM     21  C   UNL     1      61.266  61.917  71.910  0.00  0.00    +0.000 A 
ATOM     22  C   UNL     1      61.638  62.425  72.443  0.00  0.00    +0.000 A 
ATOM     23  F   UNL     1      61.765  62.186  73.222  0.00  0.00    +0.000 F 
ATOM     24  C   UNL     1      61.885  63.173  72.195  0.00  0.00    +0.000 A 
ATOM     25  C   UNL     1      61.759  63.412  71.417  0.00  0.00    +0.000 A 
ATOM     26  C   UNL     1      61.506  63.890  69.858  0.00  0.00    +0.000 A 
ATOM     27  N   UNL     1      61.879  64.398  70.390  0.00  0.00    +0.000 NA
ATOM     28  C   UNL     1      60.387  62.364  68.261  0.00  0.00    +0.000 C 
ATOM     29  O   UNL     1      60.141  61.618  68.508  0.00  0.00    +0.000 OA
ATOM     30  O   UNL     1      60.261  62.604  67.482  0.00  0.00    +0.000 OA
ENDROOT
TORSDOF 0
ENDMDL
MODEL 5
REMARK VINA RESULT:   -12.542      2.794      4.059
REMARK INTER + INTRA:         -12.542
REMARK INTER:                 -12.542
REMARK INTRA:                   0.000
REMARK UNBOUND:                 0.000
ROOT
REMARK  Name = trovafloxacin
REMARK                            x       y       z     vdW  Elec       q    Type
REMARK                         _______ _______ _______ _____ _____    ______ ____
ATOM      1  N   UNL     1      65.412  66.881  71.681  0.00  0.00    +0.000 NA
ATOM      2  C   UNL     1      64.605  66.827  71.844  0.00  0.00    +0.000 C 
ATOM      3  C   UNL     1      63.902  67.180  72.094  0.00  0.00    +0.000 C 
ATOM      4  C   UNL     1      63.132  67.375  72.316  0.00  0.00    +0.000 C 
ATOM      5  N   UNL     1      62.664  66.699  72.235  0.00  0.00    +0.000 N 
ATOM      6  C   UNL     1      63.145  66.087  71.964  0.00  0.00    +0.000 C 
ATOM      7  C   UNL     1      63.910  66.383  71.876  0.00  0.00    +0.000 C 
ATOM      8  C   UNL     1      61.857  66.646  72.398  0.00  0.00    +0.000 A 
ATOM      9  C   UNL     1      61.446  67.309  72.668  0.00  0.00    +0.000 A 
ATOM     10  F   UNL     1      61.842  68.025  72.775  0.00  0.00    +0.000 F 
ATOM     11  C   UNL     1      60.639  67.256  72.831  0.00  0.00    +0.000 A 
ATOM     12  C   UNL     1      60.243  66.541  72.724  0.00  0.00    +0.000 A 
ATOM     13  C   UNL     1      59.436  66.487  72.887  0.00  0.00    +0.000 A 
ATOM     14  O   UNL     1      59.025  67.150  73.157  0.00  0.00    +0.000 OA
ATOM     15  C   UNL     1      59.040  65.772  72.781  0.00  0.00    +0.000 A 
ATOM     16  C   UNL     1      59.451  65.108  72.511  0.00  0.00    +0.000 A 
ATOM     17  N   UNL     1      60.258  65.162  72.348  0.00  0.00    +0.000 N 
ATOM     18  C   UNL     1      60.669  64.499  72.078  0.00  0.00    +0.000 A 
ATOM     19  C   UNL     1      60.273  63.783  71.971  0.00  0.00    +0.000 A 
ATOM     20  F   UNL     1      59.465  63.730  72.134  0.00  0.00    +0.000 F 
ATOM     21  C   UNL     1      60.683  63.121  71.702  0.00  0.00    +0.000 A 
ATOM     22  C   UNL     1      61.490  63.174  71.539  0.00  0.00    +0.000 A 
ATOM     23  F   UNL     1      61.901  62.511  71.269  0.00  0.00    +0.000 F 
ATOM     24  C   UNL     1      61.887  63.890  71.646  0.00  0.00    +0.000 A 
ATOM     25  C   UNL     1      61.476  64.552  71.915  0.00  0.00    +0.000 A 
ATOM     26  C   UNL     1      60.655  65.877  72.454  0.00  0.00    +0.000 A 
ATOM     27  N   UNL     1      61.461  65.931  72.292  0.00  0.00    +0.000 NA
ATOM     28  C   UNL     1      58.233  65.718  72.943  0.00  0.00    +0.000 C 
ATOM     29  O   UNL     1      57.837  65.003  72.837  0.00  0.00    +0.000 OA
ATOM     30  O   UNL     1      57.822  66.381  73.213  0.00  0.00    +0.000 OA
ENDROOT
TORSDOF 0
ENDMDL
MODEL 6
REMARK VINA RESULT:   -11.868      3.172      4.833
REMARK INTER + INTRA:         -11.868
REMARK INTER:                 -11.868
REMARK INTRA:                   0.000
REMARK UNBOUND:                 0.000
ROOT
REMARK  Name = trovafloxacin
REMARK                            x       y       z     vdW  Elec       q    Type
REMARK                         _______ _______ _______ _____ _____    ______ ____
ATOM      1  N   UNL     1      65.337  67.167  71.912  0.00  0.00    +0.000 NA
ATOM      2  C   UNL     1      64.812  66.696  71.485  0.00  0.00    +0.000 C 
ATOM      3  C   UNL     1      64.653  66.003  71.065  0.00  0.00    +0.000 C 
ATOM      4  C   UNL     1      64.335  65.379  70.629  0.00  0.00    +0.000 C 
ATOM      5  N   UNL     1      63.549  65.561  70.458  0.00  0.00    +0.000 N 
ATOM      6  C   UNL     1      63.380  66.297  70.789  0.00  0.00    +0.000 C 
ATOM      7  C   UNL     1      64.061  66.571  71.165  0.00  0.00    +0.000 C 
ATOM      8  C   UNL     1      63.023  65.090  70.032  0.00  0.00    +0.000 A 
ATOM      9  C   UNL     1      63.272  64.362  69.732  0.00  0.00    +0.000 A 
ATOM     10  F   UNL     1      64.046  64.106  69.860  0.00  0.00    +0.000 F 
ATOM     11  C   UNL     1      62.747  63.890  69.305  0.00  0.00    +0.000 A 
ATOM     12  C   UNL     1      61.973  64.145  69.178  0.00  0.00    +0.000 A 
ATOM     13  C   UNL     1      61.448  63.674  68.751  0.00  0.00    +0.000 A 
ATOM     14  O   UNL     1      61.696  62.947  68.452  0.00  0.00    +0.000 OA
ATOM     15  C   UNL     1      60.674  63.929  68.624  0.00  0.00    +0.000 A 
ATOM     16  C   UNL     1      60.425  64.658  68.923  0.00  0.00    +0.000 A 
ATOM     17  N   UNL     1      60.950  65.129  69.350  0.00  0.00    +0.000 N 
ATOM     18  C   UNL     1      60.701  65.856  69.649  0.00  0.00    +0.000 A 
ATOM     19  C   UNL     1      59.928  66.112  69.522  0.00  0.00    +0.000 A 
ATOM     20  F   UNL     1      59.402  65.640  69.095  0.00  0.00    +0.000 F 
ATOM     21  C   UNL     1      59.679  66.839  69.821  0.00  0.00    +0.000 A 
ATOM     22  C   UNL     1      60.204  67.311  70.248  0.00  0.00    +0.000 A 
ATOM     23  F   UNL     1      59.955  68.039  70.547  0.00  0.00    +0.000 F 
ATOM     24  C   UNL     1      60.978  67.055  70.375  0.00  0.00    +0.000 A 
ATOM     25  C   UNL     1      61.227  66.329  70.076  0.00  0.00    +0.000 A 
ATOM     26  C   UNL     1      61.724  64.874  69.478  0.00  0.00    +0.000 A 
ATOM     27  N   UNL     1      62.249  65.345  69.904  0.00  0.00    +0.000 NA
ATOM     28  C   UNL     1      60.148  63.458  68.197  0.00  0.00    +0.000 C 
ATOM     29  O   UNL     1      59.375  63.713  68.069  0.00  0.00    +0.000 OA
ATOM     30  O   UNL     1      60.397  62.730  67.897  0.00  0.00    +0.000 OA
ENDROOT
TORSDOF 0
ENDMDL
MODEL 7
REMARK VINA RESULT:   -10.986     26.796     28.083
REMARK INTER + INTRA:         -10.986
REMARK INTER:                 -10.986
REMARK INTRA:                   0.000
REMARK UNBOUND:                 0.000
ROOT
REMARK  Name = trovafloxacin
REMARK                            x       y       z     vdW  Elec       q    Type
REMARK                         _______ _______ _______ _____ _____    ______ ____
ATOM      1  N   UNL     1      72.780  82.236  55.269  0.00  0.00    +0.000 NA
ATOM      2  C   UNL     1      72.737  81.920  54.508  0.00  0.00    +0.000 C 
ATOM      3  C   UNL     1      73.111  81.686  53.811  0.00  0.00    +0.000 C 
ATOM      4  C   UNL     1      73.324  81.409  53.063  0.00  0.00    +0.000 C 
ATOM      5  N   UNL     1      72.638  81.160  52.678  0.00  0.00    +0.000 N 
ATOM      6  C   UNL     1      72.001  81.282  53.188  0.00  0.00    +0.000 C 
ATOM      7  C   UNL     1      72.293  81.607  53.888  0.00  0.00    +0.000 C 
ATOM      8  C   UNL     1      72.595  80.844  51.917  0.00  0.00    +0.000 A 
ATOM      9  C   UNL     1      73.284  80.754  51.469  0.00  0.00    +0.000 A 
ATOM     10  F   UNL     1      74.012  80.980  51.783  0.00  0.00    +0.000 F 
ATOM     11  C   UNL     1      73.242  80.438  50.709  0.00  0.00    +0.000 A 
ATOM     12  C   UNL     1      72.514  80.212  50.396  0.00  0.00    +0.000 A 
ATOM     13  C   UNL     1      72.472  79.896  49.635  0.00  0.00    +0.000 A 
ATOM     14  O   UNL     1      73.159  79.806  49.187  0.00  0.00    +0.000 OA
ATOM     15  C   UNL     1      71.743  79.669  49.321  0.00  0.00    +0.000 A 
ATOM     16  C   UNL     1      71.055  79.759  49.769  0.00  0.00    +0.000 A 
ATOM     17  N   UNL     1      71.097  80.075  50.529  0.00  0.00    +0.000 N 
ATOM     18  C   UNL     1      70.410  80.165  50.977  0.00  0.00    +0.000 A 
ATOM     19  C   UNL     1      69.681  79.939  50.664  0.00  0.00    +0.000 A 
ATOM     20  F   UNL     1      69.639  79.623  49.902  0.00  0.00    +0.000 F 
ATOM     21  C   UNL     1      68.994  80.028  51.111  0.00  0.00    +0.000 A 
ATOM     22  C   UNL     1      69.035  80.344  51.872  0.00  0.00    +0.000 A 
ATOM     23  F   UNL     1      68.348  80.434  52.319  0.00  0.00    +0.000 F 
ATOM     24  C   UNL     1      69.765  80.571  52.185  0.00  0.00    +0.000 A 
ATOM     25  C   UNL     1      70.451  80.481  51.739  0.00  0.00    +0.000 A 
ATOM     26  C   UNL     1      71.826  80.302  50.844  0.00  0.00    +0.000 A 
ATOM     27  N   UNL     1      71.867  80.617  51.604  0.00  0.00    +0.000 NA
ATOM     28  C   UNL     1      71.701  79.353  48.560  0.00  0.00    +0.000 C 
ATOM     29  O   UNL     1      70.973  79.127  48.247  0.00  0.00    +0.000 OA
ATOM     30  O   UNL     1      72.388  79.264  48.113  0.00  0.00    +0.000 OA
ENDROOT
TORSDOF 0
ENDMDL
MODEL 8
REMARK VINA RESULT:   -10.750     15.749     17.979
REMARK INTER + INTRA:         -10.750
REMARK INTER:                 -10.750
REMARK INTRA:                   0.000
REMARK UNBOUND:                 0.000
ROOT
REMARK  Name = trovafloxacin
REMARK                            x       y       z     vdW  Elec       q    Type
REMARK                         _______ _______ _______ _____ _____    ______ ____
ATOM      1  N   UNL     1      61.823  70.934  49.685  0.00  0.00    +0.000 NA
ATOM      2  C   UNL     1      61.809  70.312  50.227  0.00  0.00    +0.000 C 
ATOM      3  C   UNL     1      61.740  69.505  50.385  0.00  0.00    +0.000 C 
ATOM      4  C   UNL     1      61.691  68.748  50.709  0.00  0.00    +0.000 C 
ATOM      5  N   UNL     1      61.776  68.814  51.527  0.00  0.00    +0.000 N 
ATOM      6  C   UNL     1      61.877  69.612  51.709  0.00  0.00    +0.000 C 
ATOM      7  C   UNL     1      61.855  70.040  51.004  0.00  0.00    +0.000 C 
ATOM      8  C   UNL     1      61.763  68.192  52.069  0.00  0.00    +0.000 A 
ATOM      9  C   UNL     1      61.656  67.417  51.804  0.00  0.00    +0.000 A 
ATOM     10  F   UNL     1      61.564  67.266  50.998  0.00  0.00    +0.000 F 
ATOM     11  C   UNL     1      61.643  66.795  52.345  0.00  0.00    +0.000 A 
ATOM     12  C   UNL     1      61.736  66.946  53.150  0.00  0.00    +0.000 A 
ATOM     13  C   UNL     1      61.722  66.323  53.691  0.00  0.00    +0.000 A 
ATOM     14  O   UNL     1      61.616  65.549  53.427  0.00  0.00    +0.000 OA
ATOM     15  C   UNL     1      61.815  66.474  54.496  0.00  0.00    +0.000 A 
ATOM     16  C   UNL     1      61.921  67.250  54.761  0.00  0.00    +0.000 A 
ATOM     17  N   UNL     1      61.935  67.872  54.221  0.00  0.00    +0.000 N 
ATOM     18  C   UNL     1      62.041  68.646  54.485  0.00  0.00    +0.000 A 
ATOM     19  C   UNL     1      62.134  68.798  55.291  0.00  0.00    +0.000 A 
ATOM     20  F   UNL     1      62.121  68.174  55.832  0.00  0.00    +0.000 F 
ATOM     21  C   UNL     1      62.240  69.571  55.555  0.00  0.00    +0.000 A 
ATOM     22  C   UNL     1      62.254  70.194  55.015  0.00  0.00    +0.000 A 
ATOM     23  F   UNL     1      62.361  70.968  55.280  0.00  0.00    +0.000 F 
ATOM     24  C   UNL     1      62.161  70.042  54.209  0.00  0.00    +0.000 A 
ATOM     25  C   UNL     1      62.055  69.269  53.944  0.00  0.00    +0.000 A 
ATOM     26  C   UNL     1      61.842  67.721  53.415  0.00  0.00    +0.000 A 
ATOM     27  N   UNL     1      61.856  68.343  52.874  0.00  0.00    +0.000 NA
ATOM     28  C   UNL     1      61.801  65.852  55.038  0.00  0.00    +0.000 C 
ATOM     29  O   UNL     1      61.894  66.003  55.843  0.00  0.00    +0.000 OA
ATOM     30  O   UNL     1      61.695  65.078  54.773  0.00  0.00    +0.000 OA
ENDROOT
TORSDOF 0
ENDMDL
MODEL 9
REMARK VINA RESULT:   -10.589     15.809     17.764
REMARK INTER + INTRA:         -10.589
REMARK INTER:                 -10.589
REMARK INTRA:                   0.000
REMARK UNBOUND:                 0.000
ROOT
REMARK  Name = trovafloxacin
REMARK                            x       y       z     vdW  Elec       q    Type
REMARK                         _______ _______ _______ _____ _____    ______ ____
ATOM      1  N   UNL     1      61.559  66.479  48.926  0.00  0.00    +0.000 NA
ATOM      2  C   UNL     1      61.651  66.892  49.635  0.00  0.00    +0.000 C 
ATOM      3  C   UNL     1      61.760  67.605  50.036  0.00  0.00    +0.000 C 
ATOM      4  C   UNL     1      61.865  68.217  50.579  0.00  0.00    +0.000 C 
ATOM      5  N   UNL     1      61.874  67.888  51.336  0.00  0.00    +0.000 N 
ATOM      6  C   UNL     1      61.774  67.073  51.261  0.00  0.00    +0.000 C 
ATOM      7  C   UNL     1      61.703  66.897  50.458  0.00  0.00    +0.000 C 
ATOM      8  C   UNL     1      61.966  68.301  52.044  0.00  0.00    +0.000 A 
ATOM      9  C   UNL     1      62.061  69.122  52.033  0.00  0.00    +0.000 A 
ATOM     10  F   UNL     1      62.064  69.527  51.314  0.00  0.00    +0.000 F 
ATOM     11  C   UNL     1      62.154  69.535  52.741  0.00  0.00    +0.000 A 
ATOM     12  C   UNL     1      62.151  69.130  53.459  0.00  0.00    +0.000 A 
ATOM     13  C   UNL     1      62.243  69.544  54.167  0.00  0.00    +0.000 A 
ATOM     14  O   UNL     1      62.339  70.363  54.156  0.00  0.00    +0.000 OA
ATOM     15  C   UNL     1      62.240  69.139  54.885  0.00  0.00    +0.000 A 
ATOM     16  C   UNL     1      62.145  68.318  54.896  0.00  0.00    +0.000 A 
ATOM     17  N   UNL     1      62.053  67.905  54.188  0.00  0.00    +0.000 N 
ATOM     18  C   UNL     1      61.957  67.085  54.199  0.00  0.00    +0.000 A 
ATOM     19  C   UNL     1      61.954  66.679  54.917  0.00  0.00    +0.000 A 
ATOM     20  F   UNL     1      62.047  67.094  55.625  0.00  0.00    +0.000 F 
ATOM     21  C   UNL     1      61.859  65.861  54.928  0.00  0.00    +0.000 A 
ATOM     22  C   UNL     1      61.767  65.446  54.221  0.00  0.00    +0.000 A 
ATOM     23  F   UNL     1      61.671  64.627  54.232  0.00  0.00    +0.000 F 
ATOM     24  C   UNL     1      61.770  65.852  53.502  0.00  0.00    +0.000 A 
ATOM     25  C   UNL     1      61.865  66.671  53.491  0.00  0.00    +0.000 A 
ATOM     26  C   UNL     1      62.055  68.310  53.469  0.00  0.00    +0.000 A 
ATOM     27  N   UNL     1      61.963  67.896  52.762  0.00  0.00    +0.000 NA
ATOM     28  C   UNL     1      62.333  69.552  55.593  0.00  0.00    +0.000 C 
ATOM     29  O   UNL     1      62.330  69.147  56.311  0.00  0.00    +0.000 OA
ATOM     30  O   UNL     1      62.428  70.371  55.582  0.00  0.00    +0.000 OA
ENDROOT
TORSDOF 0
ENDMDL
