MODEL 1
REMARK VINA RESULT:    -7.702      0.000      0.000
REMARK INTER + INTRA:          -7.702
REMARK INTER:                  -7.702
REMARK INTRA:                   0.000
REMARK UNBOUND:                 0.000
ROOT
REMARK  Name = troxacitabine
REMARK                            x       y       z     vdW  Elec       q    Type
REMARK                         _______ _______ _______ _____ _____    ______ ____
ATOM      1  N   UNL     1      62.452  61.541  63.581  0.00  0.00    +0.000 NA
ATOM      2  C   UNL     1      62.043  61.778  64.257  0.00  0.00    +0.000 A 
ATOM      3  N   UNL     1      61.284  61.491  64.402  0.00  0.00    +0.000 NA
ATOM      4  C   UNL     1      60.876  61.728  65.079  0.00  0.00    +0.000 A 
ATOM      5  O   UNL     1      60.117  61.441  65.224  0.00  0.00    +0.000 OA
ATOM      6  N   UNL     1      61.227  62.252  65.610  0.00  0.00    +0.000 N 
ATOM      7  C   UNL     1      61.987  62.539  65.465  0.00  0.00    +0.000 A 
ATOM      8  C   UNL     1      62.396  62.303  64.788  0.00  0.00    +0.000 A 
ATOM      9  C   UNL     1      60.819  62.489  66.287  0.00  0.00    +0.000 C 
ATOM     10  C   UNL     1      60.060  62.250  66.504  0.00  0.00    +0.000 C 
ATOM     11  O   UNL     1      59.870  62.620  67.217  0.00  0.00    +0.000 OA
ATOM     12  C   UNL     1      60.511  63.088  67.440  0.00  0.00    +0.000 C 
ATOM     13  C   UNL     1      60.558  63.555  68.119  0.00  0.00    +0.000 C 
ATOM     14  O   UNL     1      59.924  63.581  68.646  0.00  0.00    +0.000 OA
ATOM     15  O   UNL     1      61.098  63.007  66.865  0.00  0.00    +0.000 OA
ENDROOT
TORSDOF 0
ENDMDL
MODEL 2
REMARK VINA RESULT:    -7.322      1.543      3.388
REMARK INTER + INTRA:          -7.322
REMARK INTER:                  -7.322
REMARK INTRA:                   0.000
REMARK UNBOUND:                 0.000
ROOT
REMARK  Name = troxacitabine
REMARK                            x       y       z     vdW  Elec       q    Type
REMARK                         _______ _______ _______ _____ _____    ______ ____
ATOM      1  N   UNL     1      60.140  63.376  68.783  0.00  0.00    +0.000 NA
ATOM      2  C   UNL     1      60.367  63.087  68.044  0.00  0.00    +0.000 A 
ATOM      3  N   UNL     1      59.833  62.656  67.588  0.00  0.00    +0.000 NA
ATOM      4  C   UNL     1      60.060  62.366  66.850  0.00  0.00    +0.000 A 
ATOM      5  O   UNL     1      59.526  61.935  66.393  0.00  0.00    +0.000 OA
ATOM      6  N   UNL     1      60.822  62.508  66.567  0.00  0.00    +0.000 N 
ATOM      7  C   UNL     1      61.357  62.940  67.024  0.00  0.00    +0.000 A 
ATOM      8  C   UNL     1      61.130  63.230  67.762  0.00  0.00    +0.000 A 
ATOM      9  C   UNL     1      61.049  62.219  65.829  0.00  0.00    +0.000 C 
ATOM     10  C   UNL     1      60.577  61.781  65.313  0.00  0.00    +0.000 C 
ATOM     11  O   UNL     1      61.025  61.609  64.641  0.00  0.00    +0.000 OA
ATOM     12  C   UNL     1      61.774  61.940  64.742  0.00  0.00    +0.000 C 
ATOM     13  C   UNL     1      62.398  61.901  64.204  0.00  0.00    +0.000 C 
ATOM     14  O   UNL     1      62.300  61.502  63.488  0.00  0.00    +0.000 OA
ATOM     15  O   UNL     1      61.789  62.317  65.476  0.00  0.00    +0.000 OA
ENDROOT
TORSDOF 0
ENDMDL
MODEL 3
REMARK VINA RESULT:    -7.025      2.046      3.884
REMARK INTER + INTRA:          -7.025
REMARK INTER:                  -7.025
REMARK INTRA:                   0.000
REMARK UNBOUND:                 0.000
ROOT
REMARK  Name = troxacitabine
REMARK                            x       y       z     vdW  Elec       q    Type
REMARK                         _______ _______ _______ _____ _____    ______ ____
ATOM      1  N   UNL     1      60.444  62.740  70.331  0.00  0.00    +0.000 NA
ATOM      2  C   UNL     1      60.646  62.664  69.535  0.00  0.00    +0.000 A 
ATOM      3  N   UNL     1      61.005  63.292  69.139  0.00  0.00    +0.000 NA
ATOM      4  C   UNL     1      61.207  63.215  68.343  0.00  0.00    +0.000 A 
ATOM      5  O   UNL     1      61.566  63.843  67.945  0.00  0.00    +0.000 OA
ATOM      6  N   UNL     1      61.051  62.511  67.943  0.00  0.00    +0.000 N 
ATOM      7  C   UNL     1      60.692  61.882  68.340  0.00  0.00    +0.000 A 
ATOM      8  C   UNL     1      60.489  61.959  69.136  0.00  0.00    +0.000 A 
ATOM      9  C   UNL     1      61.253  62.434  67.147  0.00  0.00    +0.000 C 
ATOM     10  C   UNL     1      61.612  63.011  66.680  0.00  0.00    +0.000 C 
ATOM     11  O   UNL     1      61.713  62.701  65.922  0.00  0.00    +0.000 OA
ATOM     12  C   UNL     1      61.415  61.931  65.920  0.00  0.00    +0.000 C 
ATOM     13  C   UNL     1      61.404  61.417  65.276  0.00  0.00    +0.000 C 
ATOM     14  O   UNL     1      61.710  61.660  64.549  0.00  0.00    +0.000 OA
ATOM     15  O   UNL     1      61.131  61.766  66.677  0.00  0.00    +0.000 OA
ENDROOT
TORSDOF 0
ENDMDL
MODEL 4
REMARK VINA RESULT:    -6.803      1.254      1.795
REMARK INTER + INTRA:          -6.803
REMARK INTER:                  -6.803
REMARK INTRA:                   0.000
REMARK UNBOUND:                 0.000
ROOT
REMARK  Name = troxacitabine
REMARK                            x       y       z     vdW  Elec       q    Type
REMARK                         _______ _______ _______ _____ _____    ______ ____
ATOM      1  N   UNL     1      60.465  61.098  64.597  0.00  0.00    +0.000 NA
ATOM      2  C   UNL     1      60.539  61.580  65.263  0.00  0.00    +0.000 A 
ATOM      3  N   UNL     1      61.275  61.892  65.466  0.00  0.00    +0.000 NA
ATOM      4  C   UNL     1      61.349  62.374  66.131  0.00  0.00    +0.000 A 
ATOM      5  O   UNL     1      62.084  62.687  66.335  0.00  0.00    +0.000 OA
ATOM      6  N   UNL     1      60.687  62.544  66.593  0.00  0.00    +0.000 N 
ATOM      7  C   UNL     1      59.951  62.231  66.390  0.00  0.00    +0.000 A 
ATOM      8  C   UNL     1      59.876  61.749  65.725  0.00  0.00    +0.000 A 
ATOM      9  C   UNL     1      60.761  63.026  67.259  0.00  0.00    +0.000 C 
ATOM     10  C   UNL     1      61.457  63.376  67.529  0.00  0.00    +0.000 C 
ATOM     11  O   UNL     1      61.278  63.810  68.208  0.00  0.00    +0.000 OA
ATOM     12  C   UNL     1      60.471  63.727  68.358  0.00  0.00    +0.000 C 
ATOM     13  C   UNL     1      60.057  64.069  68.984  0.00  0.00    +0.000 C 
ATOM     14  O   UNL     1      60.453  64.543  69.531  0.00  0.00    +0.000 OA
ATOM     15  O   UNL     1      60.151  63.243  67.771  0.00  0.00    +0.000 OA
ENDROOT
TORSDOF 0
ENDMDL
MODEL 5
REMARK VINA RESULT:    -6.525      6.891      7.584
REMARK INTER + INTRA:          -6.525
REMARK INTER:                  -6.525
REMARK INTRA:                   0.000
REMARK UNBOUND:                 0.000
ROOT
REMARK  Name = troxacitabine
REMARK                            x       y       z     vdW  Elec       q    Type
REMARK                         _______ _______ _______ _____ _____    ______ ____
ATOM      1  N   UNL     1      66.623  67.692  69.798  0.00  0.00    +0.000 NA
ATOM      2  C   UNL     1      65.954  67.393  70.176  0.00  0.00    +0.000 A 
ATOM      3  N   UNL     1      65.450  66.877  69.776  0.00  0.00    +0.000 NA
ATOM      4  C   UNL     1      64.781  66.578  70.154  0.00  0.00    +0.000 A 
ATOM      5  O   UNL     1      64.277  66.062  69.753  0.00  0.00    +0.000 OA
ATOM      6  N   UNL     1      64.615  66.794  70.932  0.00  0.00    +0.000 N 
ATOM      7  C   UNL     1      65.119  67.310  71.333  0.00  0.00    +0.000 A 
ATOM      8  C   UNL     1      65.789  67.610  70.955  0.00  0.00    +0.000 A 
ATOM      9  C   UNL     1      63.946  66.494  71.310  0.00  0.00    +0.000 C 
ATOM     10  C   UNL     1      63.394  65.977  70.982  0.00  0.00    +0.000 C 
ATOM     11  O   UNL     1      62.818  65.822  71.552  0.00  0.00    +0.000 OA
ATOM     12  C   UNL     1      63.013  66.245  72.233  0.00  0.00    +0.000 C 
ATOM     13  C   UNL     1      62.587  66.251  72.939  0.00  0.00    +0.000 C 
ATOM     14  O   UNL     1      61.895  65.805  73.007  0.00  0.00    +0.000 OA
ATOM     15  O   UNL     1      63.710  66.660  72.084  0.00  0.00    +0.000 OA
ENDROOT
TORSDOF 0
ENDMDL
MODEL 6
REMARK VINA RESULT:    -6.502      2.248      3.415
REMARK INTER + INTRA:          -6.502
REMARK INTER:                  -6.502
REMARK INTRA:                   0.000
REMARK UNBOUND:                 0.000
ROOT
REMARK  Name = troxacitabine
REMARK                            x       y       z     vdW  Elec       q    Type
REMARK                         _______ _______ _______ _____ _____    ______ ____
ATOM      1  N   UNL     1      61.361  62.295  66.242  0.00  0.00    +0.000 NA
ATOM      2  C   UNL     1      61.259  62.482  67.039  0.00  0.00    +0.000 A 
ATOM      3  N   UNL     1      61.648  63.133  67.362  0.00  0.00    +0.000 NA
ATOM      4  C   UNL     1      61.546  63.319  68.160  0.00  0.00    +0.000 A 
ATOM      5  O   UNL     1      61.934  63.970  68.484  0.00  0.00    +0.000 OA
ATOM      6  N   UNL     1      61.055  62.855  68.633  0.00  0.00    +0.000 N 
ATOM      7  C   UNL     1      60.666  62.203  68.308  0.00  0.00    +0.000 A 
ATOM      8  C   UNL     1      60.768  62.016  67.511  0.00  0.00    +0.000 A 
ATOM      9  C   UNL     1      60.953  63.041  69.430  0.00  0.00    +0.000 C 
ATOM     10  C   UNL     1      61.304  63.672  69.829  0.00  0.00    +0.000 C 
ATOM     11  O   UNL     1      61.050  63.650  70.614  0.00  0.00    +0.000 OA
ATOM     12  C   UNL     1      60.542  63.006  70.700  0.00  0.00    +0.000 C 
ATOM     13  C   UNL     1      60.161  62.778  71.395  0.00  0.00    +0.000 C 
ATOM     14  O   UNL     1      60.275  63.211  72.089  0.00  0.00    +0.000 OA
ATOM     15  O   UNL     1      60.482  62.629  69.968  0.00  0.00    +0.000 OA
ENDROOT
TORSDOF 0
ENDMDL
MODEL 7
REMARK VINA RESULT:    -6.410      4.531      5.623
REMARK INTER + INTRA:          -6.410
REMARK INTER:                  -6.410
REMARK INTRA:                   0.000
REMARK UNBOUND:                 0.000
ROOT
REMARK  Name = troxacitabine
REMARK                            x       y       z     vdW  Elec       q    Type
REMARK                         _______ _______ _______ _____ _____    ______ ____
ATOM      1  N   UNL     1      60.705  61.765  70.612  0.00  0.00    +0.000 NA
ATOM      2  C   UNL     1      60.482  62.559  70.636  0.00  0.00    +0.000 A 
ATOM      3  N   UNL     1      60.481  63.007  69.944  0.00  0.00    +0.000 NA
ATOM      4  C   UNL     1      60.258  63.801  69.968  0.00  0.00    +0.000 A 
ATOM      5  O   UNL     1      60.256  64.250  69.276  0.00  0.00    +0.000 OA
ATOM      6  N   UNL     1      60.036  64.146  70.683  0.00  0.00    +0.000 N 
ATOM      7  C   UNL     1      60.037  63.697  71.376  0.00  0.00    +0.000 A 
ATOM      8  C   UNL     1      60.260  62.903  71.352  0.00  0.00    +0.000 A 
ATOM      9  C   UNL     1      59.813  64.940  70.706  0.00  0.00    +0.000 C 
ATOM     10  C   UNL     1      59.785  65.455  70.063  0.00  0.00    +0.000 C 
ATOM     11  O   UNL     1      59.533  66.192  70.337  0.00  0.00    +0.000 OA
ATOM     12  C   UNL     1      59.406  66.133  71.150  0.00  0.00    +0.000 C 
ATOM     13  C   UNL     1      59.151  66.739  71.646  0.00  0.00    +0.000 C 
ATOM     14  O   UNL     1      58.999  67.489  71.337  0.00  0.00    +0.000 OA
ATOM     15  O   UNL     1      59.579  65.359  71.378  0.00  0.00    +0.000 OA
ENDROOT
TORSDOF 0
ENDMDL
MODEL 8
REMARK VINA RESULT:    -6.314      4.330      5.748
REMARK INTER + INTRA:          -6.314
REMARK INTER:                  -6.314
REMARK INTRA:                   0.000
REMARK UNBOUND:                 0.000
ROOT
REMARK  Name = troxacitabine
REMARK                            x       y       z     vdW  Elec       q    Type
REMARK                         _______ _______ _______ _____ _____    ______ ____
ATOM      1  N   UNL     1      65.362  66.097  70.999  0.00  0.00    +0.000 NA
ATOM      2  C   UNL     1      64.721  65.671  70.700  0.00  0.00    +0.000 A 
ATOM      3  N   UNL     1      64.121  65.422  71.207  0.00  0.00    +0.000 NA
ATOM      4  C   UNL     1      63.480  64.997  70.909  0.00  0.00    +0.000 A 
ATOM      5  O   UNL     1      62.878  64.747  71.415  0.00  0.00    +0.000 OA
ATOM      6  N   UNL     1      63.439  64.821  70.104  0.00  0.00    +0.000 N 
ATOM      7  C   UNL     1      64.041  65.071  69.597  0.00  0.00    +0.000 A 
ATOM      8  C   UNL     1      64.682  65.496  69.895  0.00  0.00    +0.000 A 
ATOM      9  C   UNL     1      62.799  64.395  69.806  0.00  0.00    +0.000 C 
ATOM     10  C   UNL     1      62.160  64.111  70.243  0.00  0.00    +0.000 C 
ATOM     11  O   UNL     1      61.650  63.719  69.725  0.00  0.00    +0.000 OA
ATOM     12  C   UNL     1      61.974  63.762  68.968  0.00  0.00    +0.000 C 
ATOM     13  C   UNL     1      61.647  63.443  68.281  0.00  0.00    +0.000 C 
ATOM     14  O   UNL     1      60.929  63.037  68.317  0.00  0.00    +0.000 OA
ATOM     15  O   UNL     1      62.684  64.180  69.017  0.00  0.00    +0.000 OA
ENDROOT
TORSDOF 0
ENDMDL
MODEL 9
REMARK VINA RESULT:    -6.300      4.055      5.762
REMARK INTER + INTRA:          -6.300
REMARK INTER:                  -6.300
REMARK INTRA:                   0.000
REMARK UNBOUND:                 0.000
ROOT
REMARK  Name = troxacitabine
REMARK                            x       y       z     vdW  Elec       q    Type
REMARK                         _______ _______ _______ _____ _____    ______ ____
ATOM      1  N   UNL     1      59.159  66.474  71.936  0.00  0.00    +0.000 NA
ATOM      2  C   UNL     1      59.394  65.920  71.370  0.00  0.00    +0.000 A 
ATOM      3  N   UNL     1      59.492  66.150  70.585  0.00  0.00    +0.000 NA
ATOM      4  C   UNL     1      59.727  65.597  70.020  0.00  0.00    +0.000 A 
ATOM      5  O   UNL     1      59.826  65.826  69.233  0.00  0.00    +0.000 OA
ATOM      6  N   UNL     1      59.862  64.814  70.240  0.00  0.00    +0.000 N 
ATOM      7  C   UNL     1      59.763  64.584  71.027  0.00  0.00    +0.000 A 
ATOM      8  C   UNL     1      59.529  65.137  71.592  0.00  0.00    +0.000 A 
ATOM      9  C   UNL     1      60.096  64.260  69.675  0.00  0.00    +0.000 C 
ATOM     10  C   UNL     1      60.217  64.408  68.872  0.00  0.00    +0.000 C 
ATOM     11  O   UNL     1      60.446  63.700  68.514  0.00  0.00    +0.000 OA
ATOM     12  C   UNL     1      60.467  63.115  69.095  0.00  0.00    +0.000 C 
ATOM     13  C   UNL     1      60.669  62.324  68.980  0.00  0.00    +0.000 C 
ATOM     14  O   UNL     1      60.875  62.057  68.227  0.00  0.00    +0.000 OA
ATOM     15  O   UNL     1      60.251  63.461  69.813  0.00  0.00    +0.000 OA
ENDROOT
TORSDOF 0
ENDMDL
