MODEL 1
REMARK VINA RESULT:   -14.942      0.000      0.000
REMARK INTER + INTRA:         -14.942
REMARK INTER:                 -14.942
REMARK INTRA:                   0.000
REMARK UNBOUND:                 0.000
ROOT
REMARK  Name = troxerutin
REMARK                            x       y       z     vdW  Elec       q    Type
REMARK                         _______ _______ _______ _____ _____    ______ ____
ATOM      1  C   UNL     1      59.607  70.431  51.890  0.00  0.00    +0.000 C 
ATOM      2  C   UNL     1      60.017  69.956  52.427  0.00  0.00    +0.000 C 
ATOM      3  O   UNL     1      60.158  69.163  52.252  0.00  0.00    +0.000 OA
ATOM      4  C   UNL     1      60.567  68.689  52.789  0.00  0.00    +0.000 C 
ATOM      5  O   UNL     1      60.709  67.894  52.614  0.00  0.00    +0.000 OA
ATOM      6  C   UNL     1      60.440  67.575  51.903  0.00  0.00    +0.000 C 
ATOM      7  C   UNL     1      60.581  66.781  51.729  0.00  0.00    +0.000 C 
ATOM      8  O   UNL     1      60.990  66.308  52.265  0.00  0.00    +0.000 OA
ATOM      9  C   UNL     1      61.132  65.513  52.090  0.00  0.00    +0.000 C 
ATOM     10  O   UNL     1      61.541  65.039  52.627  0.00  0.00    +0.000 OA
ATOM     11  C   UNL     1      61.809  65.359  53.339  0.00  0.00    +0.000 A 
ATOM     12  C   UNL     1      62.219  64.885  53.876  0.00  0.00    +0.000 A 
ATOM     13  O   UNL     1      62.487  65.204  54.587  0.00  0.00    +0.000 OA
ATOM     14  C   UNL     1      62.346  65.998  54.762  0.00  0.00    +0.000 A 
ATOM     15  C   UNL     1      62.615  66.318  55.473  0.00  0.00    +0.000 A 
ATOM     16  C   UNL     1      62.474  67.111  55.648  0.00  0.00    +0.000 A 
ATOM     17  O   UNL     1      62.742  67.432  56.360  0.00  0.00    +0.000 OA
ATOM     18  C   UNL     1      62.601  68.225  56.535  0.00  0.00    +0.000 C 
ATOM     19  C   UNL     1      62.869  68.545  57.246  0.00  0.00    +0.000 C 
ATOM     20  O   UNL     1      62.729  69.339  57.421  0.00  0.00    +0.000 OA
ATOM     21  C   UNL     1      62.064  67.586  55.111  0.00  0.00    +0.000 A 
ATOM     22  C   UNL     1      61.796  67.266  54.400  0.00  0.00    +0.000 A 
ATOM     23  O   UNL     1      61.386  67.740  53.863  0.00  0.00    +0.000 OA
ATOM     24  C   UNL     1      61.936  66.472  54.224  0.00  0.00    +0.000 A 
ATOM     25  C   UNL     1      61.668  66.153  53.513  0.00  0.00    +0.000 A 
ATOM     26  O   UNL     1      61.259  66.627  52.977  0.00  0.00    +0.000 OA
ATOM     27  C   UNL     1      62.360  64.091  53.701  0.00  0.00    +0.000 A 
ATOM     28  C   UNL     1      62.092  63.770  52.989  0.00  0.00    +0.000 A 
ATOM     29  C   UNL     1      62.232  62.977  52.814  0.00  0.00    +0.000 A 
ATOM     30  O   UNL     1      61.964  62.658  52.103  0.00  0.00    +0.000 OA
ATOM     31  C   UNL     1      62.105  61.864  51.928  0.00  0.00    +0.000 C 
ATOM     32  C   UNL     1      61.837  61.544  51.217  0.00  0.00    +0.000 C 
ATOM     33  O   UNL     1      61.978  60.750  51.042  0.00  0.00    +0.000 OA
ATOM     34  C   UNL     1      62.642  62.503  53.351  0.00  0.00    +0.000 A 
ATOM     35  O   UNL     1      62.783  61.709  53.177  0.00  0.00    +0.000 OA
ATOM     36  C   UNL     1      63.192  61.236  53.713  0.00  0.00    +0.000 C 
ATOM     37  C   UNL     1      63.333  60.441  53.538  0.00  0.00    +0.000 C 
ATOM     38  O   UNL     1      63.743  59.967  54.075  0.00  0.00    +0.000 OA
ATOM     39  C   UNL     1      62.911  62.822  54.063  0.00  0.00    +0.000 A 
ATOM     40  C   UNL     1      62.769  63.617  54.238  0.00  0.00    +0.000 A 
ATOM     41  C   UNL     1      60.863  65.193  51.378  0.00  0.00    +0.000 C 
ATOM     42  O   UNL     1      61.004  64.400  51.204  0.00  0.00    +0.000 OA
ATOM     43  C   UNL     1      60.454  65.667  50.842  0.00  0.00    +0.000 C 
ATOM     44  O   UNL     1      60.185  65.348  50.130  0.00  0.00    +0.000 OA
ATOM     45  C   UNL     1      60.313  66.461  51.016  0.00  0.00    +0.000 C 
ATOM     46  O   UNL     1      59.903  66.936  50.480  0.00  0.00    +0.000 OA
ATOM     47  C   UNL     1      60.836  69.008  53.501  0.00  0.00    +0.000 C 
ATOM     48  O   UNL     1      61.245  68.534  54.037  0.00  0.00    +0.000 OA
ATOM     49  C   UNL     1      60.695  69.802  53.676  0.00  0.00    +0.000 C 
ATOM     50  O   UNL     1      60.963  70.121  54.387  0.00  0.00    +0.000 OA
ATOM     51  C   UNL     1      60.285  70.276  53.139  0.00  0.00    +0.000 C 
ATOM     52  O   UNL     1      60.144  71.070  53.314  0.00  0.00    +0.000 OA
ENDROOT
TORSDOF 0
ENDMDL
MODEL 2
REMARK VINA RESULT:   -14.391      0.987      5.975
REMARK INTER + INTRA:         -14.391
REMARK INTER:                 -14.391
REMARK INTRA:                   0.000
REMARK UNBOUND:                 0.000
ROOT
REMARK  Name = troxerutin
REMARK                            x       y       z     vdW  Elec       q    Type
REMARK                         _______ _______ _______ _____ _____    ______ ____
ATOM      1  C   UNL     1      60.906  61.932  48.406  0.00  0.00    +0.000 C 
ATOM      2  C   UNL     1      61.212  62.024  49.169  0.00  0.00    +0.000 C 
ATOM      3  O   UNL     1      61.176  62.758  49.541  0.00  0.00    +0.000 OA
ATOM      4  C   UNL     1      61.481  62.850  50.302  0.00  0.00    +0.000 C 
ATOM      5  O   UNL     1      61.445  63.585  50.676  0.00  0.00    +0.000 OA
ATOM      6  C   UNL     1      61.104  64.228  50.287  0.00  0.00    +0.000 C 
ATOM      7  C   UNL     1      61.068  64.963  50.660  0.00  0.00    +0.000 C 
ATOM      8  O   UNL     1      61.373  65.054  51.421  0.00  0.00    +0.000 OA
ATOM      9  C   UNL     1      61.337  65.790  51.794  0.00  0.00    +0.000 C 
ATOM     10  O   UNL     1      61.642  65.882  52.555  0.00  0.00    +0.000 OA
ATOM     11  C   UNL     1      61.982  65.238  52.943  0.00  0.00    +0.000 A 
ATOM     12  C   UNL     1      62.288  65.330  53.705  0.00  0.00    +0.000 A 
ATOM     13  O   UNL     1      62.628  64.687  54.092  0.00  0.00    +0.000 OA
ATOM     14  C   UNL     1      62.664  63.952  53.720  0.00  0.00    +0.000 A 
ATOM     15  C   UNL     1      63.005  63.308  54.108  0.00  0.00    +0.000 A 
ATOM     16  C   UNL     1      63.041  62.574  53.735  0.00  0.00    +0.000 A 
ATOM     17  O   UNL     1      63.382  61.930  54.123  0.00  0.00    +0.000 OA
ATOM     18  C   UNL     1      63.418  61.195  53.750  0.00  0.00    +0.000 C 
ATOM     19  C   UNL     1      63.758  60.552  54.138  0.00  0.00    +0.000 C 
ATOM     20  O   UNL     1      63.794  59.817  53.765  0.00  0.00    +0.000 OA
ATOM     21  C   UNL     1      62.736  62.482  52.973  0.00  0.00    +0.000 A 
ATOM     22  C   UNL     1      62.395  63.125  52.585  0.00  0.00    +0.000 A 
ATOM     23  O   UNL     1      62.090  63.033  51.824  0.00  0.00    +0.000 OA
ATOM     24  C   UNL     1      62.359  63.860  52.958  0.00  0.00    +0.000 A 
ATOM     25  C   UNL     1      62.018  64.503  52.570  0.00  0.00    +0.000 A 
ATOM     26  O   UNL     1      61.714  64.412  51.809  0.00  0.00    +0.000 OA
ATOM     27  C   UNL     1      62.251  66.065  54.077  0.00  0.00    +0.000 A 
ATOM     28  C   UNL     1      61.911  66.709  53.690  0.00  0.00    +0.000 A 
ATOM     29  C   UNL     1      61.875  67.443  54.062  0.00  0.00    +0.000 A 
ATOM     30  O   UNL     1      61.534  68.086  53.674  0.00  0.00    +0.000 OA
ATOM     31  C   UNL     1      61.498  68.822  54.047  0.00  0.00    +0.000 C 
ATOM     32  C   UNL     1      61.157  69.465  53.659  0.00  0.00    +0.000 C 
ATOM     33  O   UNL     1      61.121  70.200  54.032  0.00  0.00    +0.000 OA
ATOM     34  C   UNL     1      62.180  67.535  54.823  0.00  0.00    +0.000 A 
ATOM     35  O   UNL     1      62.144  68.270  55.197  0.00  0.00    +0.000 OA
ATOM     36  C   UNL     1      62.448  68.361  55.957  0.00  0.00    +0.000 C 
ATOM     37  C   UNL     1      62.413  69.097  56.330  0.00  0.00    +0.000 C 
ATOM     38  O   UNL     1      62.717  69.189  57.091  0.00  0.00    +0.000 OA
ATOM     39  C   UNL     1      62.520  66.892  55.212  0.00  0.00    +0.000 A 
ATOM     40  C   UNL     1      62.556  66.157  54.838  0.00  0.00    +0.000 A 
ATOM     41  C   UNL     1      60.996  66.434  51.405  0.00  0.00    +0.000 C 
ATOM     42  O   UNL     1      60.960  67.168  51.779  0.00  0.00    +0.000 OA
ATOM     43  C   UNL     1      60.691  66.342  50.645  0.00  0.00    +0.000 C 
ATOM     44  O   UNL     1      60.350  66.985  50.257  0.00  0.00    +0.000 OA
ATOM     45  C   UNL     1      60.727  65.606  50.272  0.00  0.00    +0.000 C 
ATOM     46  O   UNL     1      60.422  65.515  49.511  0.00  0.00    +0.000 OA
ATOM     47  C   UNL     1      61.821  62.207  50.691  0.00  0.00    +0.000 C 
ATOM     48  O   UNL     1      62.126  62.299  51.451  0.00  0.00    +0.000 OA
ATOM     49  C   UNL     1      61.857  61.471  50.317  0.00  0.00    +0.000 C 
ATOM     50  O   UNL     1      62.198  60.829  50.706  0.00  0.00    +0.000 OA
ATOM     51  C   UNL     1      61.552  61.380  49.556  0.00  0.00    +0.000 C 
ATOM     52  O   UNL     1      61.588  60.645  49.184  0.00  0.00    +0.000 OA
ENDROOT
TORSDOF 0
ENDMDL
MODEL 3
REMARK VINA RESULT:   -14.149      1.607      3.792
REMARK INTER + INTRA:         -14.149
REMARK INTER:                 -14.149
REMARK INTRA:                   0.000
REMARK UNBOUND:                 0.000
ROOT
REMARK  Name = troxerutin
REMARK                            x       y       z     vdW  Elec       q    Type
REMARK                         _______ _______ _______ _____ _____    ______ ____
ATOM      1  C   UNL     1      62.376  69.350  56.126  0.00  0.00    +0.000 C 
ATOM      2  C   UNL     1      62.283  69.193  55.320  0.00  0.00    +0.000 C 
ATOM      3  O   UNL     1      62.209  68.415  55.058  0.00  0.00    +0.000 OA
ATOM      4  C   UNL     1      62.117  68.258  54.253  0.00  0.00    +0.000 C 
ATOM      5  O   UNL     1      62.043  67.479  53.990  0.00  0.00    +0.000 OA
ATOM      6  C   UNL     1      62.062  66.858  54.532  0.00  0.00    +0.000 C 
ATOM      7  C   UNL     1      61.988  66.080  54.269  0.00  0.00    +0.000 C 
ATOM      8  O   UNL     1      61.895  65.923  53.465  0.00  0.00    +0.000 OA
ATOM      9  C   UNL     1      61.821  65.144  53.202  0.00  0.00    +0.000 C 
ATOM     10  O   UNL     1      61.729  64.987  52.397  0.00  0.00    +0.000 OA
ATOM     11  C   UNL     1      61.710  65.610  51.855  0.00  0.00    +0.000 A 
ATOM     12  C   UNL     1      61.618  65.453  51.050  0.00  0.00    +0.000 A 
ATOM     13  O   UNL     1      61.599  66.075  50.509  0.00  0.00    +0.000 OA
ATOM     14  C   UNL     1      61.673  66.853  50.771  0.00  0.00    +0.000 A 
ATOM     15  C   UNL     1      61.654  67.475  50.230  0.00  0.00    +0.000 A 
ATOM     16  C   UNL     1      61.728  68.253  50.492  0.00  0.00    +0.000 A 
ATOM     17  O   UNL     1      61.709  68.875  49.951  0.00  0.00    +0.000 OA
ATOM     18  C   UNL     1      61.783  69.653  50.213  0.00  0.00    +0.000 C 
ATOM     19  C   UNL     1      61.765  70.276  49.672  0.00  0.00    +0.000 C 
ATOM     20  O   UNL     1      61.838  71.054  49.934  0.00  0.00    +0.000 OA
ATOM     21  C   UNL     1      61.821  68.410  51.298  0.00  0.00    +0.000 A 
ATOM     22  C   UNL     1      61.839  67.788  51.839  0.00  0.00    +0.000 A 
ATOM     23  O   UNL     1      61.932  67.945  52.644  0.00  0.00    +0.000 OA
ATOM     24  C   UNL     1      61.765  67.009  51.577  0.00  0.00    +0.000 A 
ATOM     25  C   UNL     1      61.784  66.388  52.118  0.00  0.00    +0.000 A 
ATOM     26  O   UNL     1      61.877  66.545  52.923  0.00  0.00    +0.000 OA
ATOM     27  C   UNL     1      61.544  64.674  50.787  0.00  0.00    +0.000 A 
ATOM     28  C   UNL     1      61.562  64.052  51.329  0.00  0.00    +0.000 A 
ATOM     29  C   UNL     1      61.489  63.274  51.066  0.00  0.00    +0.000 A 
ATOM     30  O   UNL     1      61.507  62.652  51.608  0.00  0.00    +0.000 OA
ATOM     31  C   UNL     1      61.433  61.873  51.345  0.00  0.00    +0.000 C 
ATOM     32  C   UNL     1      61.452  61.252  51.887  0.00  0.00    +0.000 C 
ATOM     33  O   UNL     1      61.378  60.473  51.624  0.00  0.00    +0.000 OA
ATOM     34  C   UNL     1      61.396  63.117  50.262  0.00  0.00    +0.000 A 
ATOM     35  O   UNL     1      61.322  62.339  49.998  0.00  0.00    +0.000 OA
ATOM     36  C   UNL     1      61.230  62.183  49.195  0.00  0.00    +0.000 C 
ATOM     37  C   UNL     1      61.156  61.403  48.931  0.00  0.00    +0.000 C 
ATOM     38  O   UNL     1      61.063  61.247  48.127  0.00  0.00    +0.000 OA
ATOM     39  C   UNL     1      61.377  63.738  49.720  0.00  0.00    +0.000 A 
ATOM     40  C   UNL     1      61.451  64.518  49.983  0.00  0.00    +0.000 A 
ATOM     41  C   UNL     1      61.840  64.522  53.744  0.00  0.00    +0.000 C 
ATOM     42  O   UNL     1      61.766  63.744  53.481  0.00  0.00    +0.000 OA
ATOM     43  C   UNL     1      61.933  64.678  54.548  0.00  0.00    +0.000 C 
ATOM     44  O   UNL     1      61.951  64.057  55.090  0.00  0.00    +0.000 OA
ATOM     45  C   UNL     1      62.006  65.457  54.811  0.00  0.00    +0.000 C 
ATOM     46  O   UNL     1      62.099  65.614  55.616  0.00  0.00    +0.000 OA
ATOM     47  C   UNL     1      62.098  68.880  53.711  0.00  0.00    +0.000 C 
ATOM     48  O   UNL     1      62.006  68.723  52.907  0.00  0.00    +0.000 OA
ATOM     49  C   UNL     1      62.172  69.659  53.974  0.00  0.00    +0.000 C 
ATOM     50  O   UNL     1      62.153  70.280  53.432  0.00  0.00    +0.000 OA
ATOM     51  C   UNL     1      62.265  69.815  54.779  0.00  0.00    +0.000 C 
ATOM     52  O   UNL     1      62.338  70.593  55.041  0.00  0.00    +0.000 OA
ENDROOT
TORSDOF 0
ENDMDL
MODEL 4
REMARK VINA RESULT:   -14.041      1.647      3.942
REMARK INTER + INTRA:         -14.041
REMARK INTER:                 -14.041
REMARK INTRA:                   0.000
REMARK UNBOUND:                 0.000
ROOT
REMARK  Name = troxerutin
REMARK                            x       y       z     vdW  Elec       q    Type
REMARK                         _______ _______ _______ _____ _____    ______ ____
ATOM      1  C   UNL     1      61.994  69.266  54.677  0.00  0.00    +0.000 C 
ATOM      2  C   UNL     1      61.996  68.888  53.942  0.00  0.00    +0.000 C 
ATOM      3  O   UNL     1      61.992  68.065  53.902  0.00  0.00    +0.000 OA
ATOM      4  C   UNL     1      61.994  67.688  53.168  0.00  0.00    +0.000 C 
ATOM      5  O   UNL     1      61.991  66.863  53.127  0.00  0.00    +0.000 OA
ATOM      6  C   UNL     1      61.986  66.417  53.820  0.00  0.00    +0.000 C 
ATOM      7  C   UNL     1      61.983  65.593  53.779  0.00  0.00    +0.000 C 
ATOM      8  O   UNL     1      61.984  65.217  53.046  0.00  0.00    +0.000 OA
ATOM      9  C   UNL     1      61.981  64.392  53.005  0.00  0.00    +0.000 C 
ATOM     10  O   UNL     1      61.983  64.015  52.271  0.00  0.00    +0.000 OA
ATOM     11  C   UNL     1      61.988  64.463  51.578  0.00  0.00    +0.000 A 
ATOM     12  C   UNL     1      61.990  64.086  50.843  0.00  0.00    +0.000 A 
ATOM     13  O   UNL     1      61.995  64.533  50.151  0.00  0.00    +0.000 OA
ATOM     14  C   UNL     1      61.998  65.356  50.191  0.00  0.00    +0.000 A 
ATOM     15  C   UNL     1      62.003  65.804  49.498  0.00  0.00    +0.000 A 
ATOM     16  C   UNL     1      62.007  66.627  49.538  0.00  0.00    +0.000 A 
ATOM     17  O   UNL     1      62.012  67.075  48.845  0.00  0.00    +0.000 OA
ATOM     18  C   UNL     1      62.015  67.899  48.886  0.00  0.00    +0.000 C 
ATOM     19  C   UNL     1      62.020  68.347  48.193  0.00  0.00    +0.000 C 
ATOM     20  O   UNL     1      62.023  69.170  48.233  0.00  0.00    +0.000 OA
ATOM     21  C   UNL     1      62.005  67.005  50.273  0.00  0.00    +0.000 A 
ATOM     22  C   UNL     1      62.000  66.558  50.966  0.00  0.00    +0.000 A 
ATOM     23  O   UNL     1      61.998  66.935  51.700  0.00  0.00    +0.000 OA
ATOM     24  C   UNL     1      61.996  65.733  50.926  0.00  0.00    +0.000 A 
ATOM     25  C   UNL     1      61.991  65.286  51.618  0.00  0.00    +0.000 A 
ATOM     26  O   UNL     1      61.990  65.663  52.352  0.00  0.00    +0.000 OA
ATOM     27  C   UNL     1      61.987  63.262  50.803  0.00  0.00    +0.000 A 
ATOM     28  C   UNL     1      61.982  62.814  51.496  0.00  0.00    +0.000 A 
ATOM     29  C   UNL     1      61.978  61.990  51.456  0.00  0.00    +0.000 A 
ATOM     30  O   UNL     1      61.973  61.543  52.149  0.00  0.00    +0.000 OA
ATOM     31  C   UNL     1      61.970  60.719  52.109  0.00  0.00    +0.000 C 
ATOM     32  C   UNL     1      61.965  60.272  52.801  0.00  0.00    +0.000 C 
ATOM     33  O   UNL     1      61.962  59.448  52.761  0.00  0.00    +0.000 OA
ATOM     34  C   UNL     1      61.980  61.614  50.722  0.00  0.00    +0.000 A 
ATOM     35  O   UNL     1      61.977  60.790  50.681  0.00  0.00    +0.000 OA
ATOM     36  C   UNL     1      61.979  60.413  49.948  0.00  0.00    +0.000 C 
ATOM     37  C   UNL     1      61.975  59.589  49.907  0.00  0.00    +0.000 C 
ATOM     38  O   UNL     1      61.977  59.212  49.173  0.00  0.00    +0.000 OA
ATOM     39  C   UNL     1      61.985  62.060  50.029  0.00  0.00    +0.000 A 
ATOM     40  C   UNL     1      61.988  62.885  50.069  0.00  0.00    +0.000 A 
ATOM     41  C   UNL     1      61.976  63.945  53.699  0.00  0.00    +0.000 C 
ATOM     42  O   UNL     1      61.973  63.121  53.658  0.00  0.00    +0.000 OA
ATOM     43  C   UNL     1      61.974  64.321  54.432  0.00  0.00    +0.000 C 
ATOM     44  O   UNL     1      61.969  63.874  55.126  0.00  0.00    +0.000 OA
ATOM     45  C   UNL     1      61.978  65.146  54.473  0.00  0.00    +0.000 C 
ATOM     46  O   UNL     1      61.976  65.522  55.207  0.00  0.00    +0.000 OA
ATOM     47  C   UNL     1      61.999  68.135  52.474  0.00  0.00    +0.000 C 
ATOM     48  O   UNL     1      62.001  67.758  51.741  0.00  0.00    +0.000 OA
ATOM     49  C   UNL     1      62.003  68.959  52.515  0.00  0.00    +0.000 C 
ATOM     50  O   UNL     1      62.008  69.406  51.821  0.00  0.00    +0.000 OA
ATOM     51  C   UNL     1      62.001  69.336  53.249  0.00  0.00    +0.000 C 
ATOM     52  O   UNL     1      62.004  70.160  53.289  0.00  0.00    +0.000 OA
ENDROOT
TORSDOF 0
ENDMDL
MODEL 5
REMARK VINA RESULT:   -13.983      2.248      7.535
REMARK INTER + INTRA:         -13.983
REMARK INTER:                 -13.983
REMARK INTRA:                   0.000
REMARK UNBOUND:                 0.000
ROOT
REMARK  Name = troxerutin
REMARK                            x       y       z     vdW  Elec       q    Type
REMARK                         _______ _______ _______ _____ _____    ______ ____
ATOM      1  C   UNL     1      63.404  59.494  54.589  0.00  0.00    +0.000 C 
ATOM      2  C   UNL     1      63.421  59.809  53.825  0.00  0.00    +0.000 C 
ATOM      3  O   UNL     1      63.219  60.598  53.700  0.00  0.00    +0.000 OA
ATOM      4  C   UNL     1      63.236  60.912  52.937  0.00  0.00    +0.000 C 
ATOM      5  O   UNL     1      63.034  61.703  52.811  0.00  0.00    +0.000 OA
ATOM      6  C   UNL     1      62.816  62.178  53.448  0.00  0.00    +0.000 C 
ATOM      7  C   UNL     1      62.614  62.968  53.322  0.00  0.00    +0.000 C 
ATOM      8  O   UNL     1      62.631  63.281  52.560  0.00  0.00    +0.000 OA
ATOM      9  C   UNL     1      62.429  64.072  52.434  0.00  0.00    +0.000 C 
ATOM     10  O   UNL     1      62.446  64.386  51.672  0.00  0.00    +0.000 OA
ATOM     11  C   UNL     1      62.665  63.909  51.035  0.00  0.00    +0.000 A 
ATOM     12  C   UNL     1      62.682  64.223  50.271  0.00  0.00    +0.000 A 
ATOM     13  O   UNL     1      62.900  63.747  49.634  0.00  0.00    +0.000 OA
ATOM     14  C   UNL     1      63.102  62.958  49.760  0.00  0.00    +0.000 A 
ATOM     15  C   UNL     1      63.321  62.481  49.123  0.00  0.00    +0.000 A 
ATOM     16  C   UNL     1      63.523  61.692  49.248  0.00  0.00    +0.000 A 
ATOM     17  O   UNL     1      63.742  61.215  48.611  0.00  0.00    +0.000 OA
ATOM     18  C   UNL     1      63.944  60.426  48.737  0.00  0.00    +0.000 C 
ATOM     19  C   UNL     1      64.163  59.949  48.100  0.00  0.00    +0.000 C 
ATOM     20  O   UNL     1      64.365  59.159  48.225  0.00  0.00    +0.000 OA
ATOM     21  C   UNL     1      63.506  61.378  50.012  0.00  0.00    +0.000 A 
ATOM     22  C   UNL     1      63.287  61.853  50.648  0.00  0.00    +0.000 A 
ATOM     23  O   UNL     1      63.270  61.540  51.411  0.00  0.00    +0.000 OA
ATOM     24  C   UNL     1      63.085  62.644  50.523  0.00  0.00    +0.000 A 
ATOM     25  C   UNL     1      62.866  63.120  51.160  0.00  0.00    +0.000 A 
ATOM     26  O   UNL     1      62.849  62.806  51.923  0.00  0.00    +0.000 OA
ATOM     27  C   UNL     1      62.480  65.013  50.146  0.00  0.00    +0.000 A 
ATOM     28  C   UNL     1      62.260  65.490  50.783  0.00  0.00    +0.000 A 
ATOM     29  C   UNL     1      62.059  66.280  50.658  0.00  0.00    +0.000 A 
ATOM     30  O   UNL     1      61.840  66.755  51.294  0.00  0.00    +0.000 OA
ATOM     31  C   UNL     1      61.638  67.546  51.169  0.00  0.00    +0.000 C 
ATOM     32  C   UNL     1      61.419  68.022  51.806  0.00  0.00    +0.000 C 
ATOM     33  O   UNL     1      61.217  68.812  51.681  0.00  0.00    +0.000 OA
ATOM     34  C   UNL     1      62.076  66.593  49.895  0.00  0.00    +0.000 A 
ATOM     35  O   UNL     1      61.874  67.383  49.769  0.00  0.00    +0.000 OA
ATOM     36  C   UNL     1      61.891  67.697  49.007  0.00  0.00    +0.000 C 
ATOM     37  C   UNL     1      61.689  68.487  48.881  0.00  0.00    +0.000 C 
ATOM     38  O   UNL     1      61.706  68.801  48.118  0.00  0.00    +0.000 OA
ATOM     39  C   UNL     1      62.294  66.118  49.257  0.00  0.00    +0.000 A 
ATOM     40  C   UNL     1      62.496  65.327  49.383  0.00  0.00    +0.000 A 
ATOM     41  C   UNL     1      62.209  64.548  53.072  0.00  0.00    +0.000 C 
ATOM     42  O   UNL     1      62.008  65.338  52.946  0.00  0.00    +0.000 OA
ATOM     43  C   UNL     1      62.192  64.235  53.834  0.00  0.00    +0.000 C 
ATOM     44  O   UNL     1      61.974  64.710  54.472  0.00  0.00    +0.000 OA
ATOM     45  C   UNL     1      62.395  63.444  53.960  0.00  0.00    +0.000 C 
ATOM     46  O   UNL     1      62.378  63.130  54.723  0.00  0.00    +0.000 OA
ATOM     47  C   UNL     1      63.455  60.436  52.299  0.00  0.00    +0.000 C 
ATOM     48  O   UNL     1      63.472  60.750  51.537  0.00  0.00    +0.000 OA
ATOM     49  C   UNL     1      63.657  59.646  52.425  0.00  0.00    +0.000 C 
ATOM     50  O   UNL     1      63.876  59.170  51.788  0.00  0.00    +0.000 OA
ATOM     51  C   UNL     1      63.640  59.332  53.188  0.00  0.00    +0.000 C 
ATOM     52  O   UNL     1      63.842  58.543  53.313  0.00  0.00    +0.000 OA
ENDROOT
TORSDOF 0
ENDMDL
MODEL 6
REMARK VINA RESULT:   -13.916      1.742      7.461
REMARK INTER + INTRA:         -13.916
REMARK INTER:                 -13.916
REMARK INTRA:                   0.000
REMARK UNBOUND:                 0.000
ROOT
REMARK  Name = troxerutin
REMARK                            x       y       z     vdW  Elec       q    Type
REMARK                         _______ _______ _______ _____ _____    ______ ____
ATOM      1  C   UNL     1      63.502  58.122  52.025  0.00  0.00    +0.000 C 
ATOM      2  C   UNL     1      62.977  58.727  51.822  0.00  0.00    +0.000 C 
ATOM      3  O   UNL     1      63.071  59.479  52.146  0.00  0.00    +0.000 OA
ATOM      4  C   UNL     1      62.547  60.083  51.944  0.00  0.00    +0.000 C 
ATOM      5  O   UNL     1      62.641  60.837  52.268  0.00  0.00    +0.000 OA
ATOM      6  C   UNL     1      63.259  60.985  52.793  0.00  0.00    +0.000 C 
ATOM      7  C   UNL     1      63.353  61.738  53.117  0.00  0.00    +0.000 C 
ATOM      8  O   UNL     1      62.829  62.342  52.915  0.00  0.00    +0.000 OA
ATOM      9  C   UNL     1      62.923  63.095  53.239  0.00  0.00    +0.000 C 
ATOM     10  O   UNL     1      62.399  63.700  53.037  0.00  0.00    +0.000 OA
ATOM     11  C   UNL     1      61.781  63.550  52.511  0.00  0.00    +0.000 A 
ATOM     12  C   UNL     1      61.256  64.155  52.309  0.00  0.00    +0.000 A 
ATOM     13  O   UNL     1      60.638  64.006  51.784  0.00  0.00    +0.000 OA
ATOM     14  C   UNL     1      60.544  63.254  51.461  0.00  0.00    +0.000 A 
ATOM     15  C   UNL     1      59.925  63.104  50.935  0.00  0.00    +0.000 A 
ATOM     16  C   UNL     1      59.831  62.352  50.611  0.00  0.00    +0.000 A 
ATOM     17  O   UNL     1      59.213  62.202  50.086  0.00  0.00    +0.000 OA
ATOM     18  C   UNL     1      59.119  61.450  49.762  0.00  0.00    +0.000 C 
ATOM     19  C   UNL     1      58.501  61.300  49.237  0.00  0.00    +0.000 C 
ATOM     20  O   UNL     1      58.407  60.548  48.913  0.00  0.00    +0.000 OA
ATOM     21  C   UNL     1      60.356  61.747  50.814  0.00  0.00    +0.000 A 
ATOM     22  C   UNL     1      60.974  61.896  51.339  0.00  0.00    +0.000 A 
ATOM     23  O   UNL     1      61.498  61.292  51.540  0.00  0.00    +0.000 OA
ATOM     24  C   UNL     1      61.069  62.649  51.663  0.00  0.00    +0.000 A 
ATOM     25  C   UNL     1      61.686  62.798  52.188  0.00  0.00    +0.000 A 
ATOM     26  O   UNL     1      62.211  62.194  52.390  0.00  0.00    +0.000 OA
ATOM     27  C   UNL     1      61.350  64.908  52.633  0.00  0.00    +0.000 A 
ATOM     28  C   UNL     1      61.968  65.057  53.159  0.00  0.00    +0.000 A 
ATOM     29  C   UNL     1      62.063  65.810  53.482  0.00  0.00    +0.000 A 
ATOM     30  O   UNL     1      62.680  65.959  54.008  0.00  0.00    +0.000 OA
ATOM     31  C   UNL     1      62.775  66.712  54.332  0.00  0.00    +0.000 C 
ATOM     32  C   UNL     1      63.393  66.861  54.857  0.00  0.00    +0.000 C 
ATOM     33  O   UNL     1      63.487  67.614  55.181  0.00  0.00    +0.000 OA
ATOM     34  C   UNL     1      61.538  66.414  53.281  0.00  0.00    +0.000 A 
ATOM     35  O   UNL     1      61.632  67.167  53.604  0.00  0.00    +0.000 OA
ATOM     36  C   UNL     1      61.108  67.770  53.402  0.00  0.00    +0.000 C 
ATOM     37  C   UNL     1      61.202  68.524  53.726  0.00  0.00    +0.000 C 
ATOM     38  O   UNL     1      60.678  69.128  53.524  0.00  0.00    +0.000 OA
ATOM     39  C   UNL     1      60.920  66.266  52.755  0.00  0.00    +0.000 A 
ATOM     40  C   UNL     1      60.826  65.512  52.431  0.00  0.00    +0.000 A 
ATOM     41  C   UNL     1      63.542  63.244  53.765  0.00  0.00    +0.000 C 
ATOM     42  O   UNL     1      63.636  63.997  54.088  0.00  0.00    +0.000 OA
ATOM     43  C   UNL     1      64.066  62.641  53.966  0.00  0.00    +0.000 C 
ATOM     44  O   UNL     1      64.684  62.789  54.492  0.00  0.00    +0.000 OA
ATOM     45  C   UNL     1      63.972  61.887  53.642  0.00  0.00    +0.000 C 
ATOM     46  O   UNL     1      64.496  61.283  53.844  0.00  0.00    +0.000 OA
ATOM     47  C   UNL     1      61.929  59.935  51.419  0.00  0.00    +0.000 C 
ATOM     48  O   UNL     1      61.405  60.539  51.217  0.00  0.00    +0.000 OA
ATOM     49  C   UNL     1      61.835  59.181  51.095  0.00  0.00    +0.000 C 
ATOM     50  O   UNL     1      61.216  59.033  50.570  0.00  0.00    +0.000 OA
ATOM     51  C   UNL     1      62.359  58.577  51.297  0.00  0.00    +0.000 C 
ATOM     52  O   UNL     1      62.265  57.825  50.973  0.00  0.00    +0.000 OA
ENDROOT
TORSDOF 0
ENDMDL
MODEL 7
REMARK VINA RESULT:   -13.684      1.247      3.797
REMARK INTER + INTRA:         -13.684
REMARK INTER:                 -13.684
REMARK INTRA:                   0.000
REMARK UNBOUND:                 0.000
ROOT
REMARK  Name = troxerutin
REMARK                            x       y       z     vdW  Elec       q    Type
REMARK                         _______ _______ _______ _____ _____    ______ ____
ATOM      1  C   UNL     1      60.128  71.154  54.473  0.00  0.00    +0.000 C 
ATOM      2  C   UNL     1      60.129  70.608  53.854  0.00  0.00    +0.000 C 
ATOM      3  O   UNL     1      60.509  69.882  53.945  0.00  0.00    +0.000 OA
ATOM      4  C   UNL     1      60.511  69.337  53.326  0.00  0.00    +0.000 C 
ATOM      5  O   UNL     1      60.892  68.610  53.418  0.00  0.00    +0.000 OA
ATOM      6  C   UNL     1      61.270  68.429  54.128  0.00  0.00    +0.000 C 
ATOM      7  C   UNL     1      61.650  67.703  54.219  0.00  0.00    +0.000 C 
ATOM      8  O   UNL     1      61.652  67.158  53.601  0.00  0.00    +0.000 OA
ATOM      9  C   UNL     1      62.033  66.431  53.692  0.00  0.00    +0.000 C 
ATOM     10  O   UNL     1      62.034  65.886  53.073  0.00  0.00    +0.000 OA
ATOM     11  C   UNL     1      61.655  66.067  52.363  0.00  0.00    +0.000 A 
ATOM     12  C   UNL     1      61.657  65.521  51.743  0.00  0.00    +0.000 A 
ATOM     13  O   UNL     1      61.279  65.702  51.033  0.00  0.00    +0.000 OA
ATOM     14  C   UNL     1      60.899  66.428  50.942  0.00  0.00    +0.000 A 
ATOM     15  C   UNL     1      60.520  66.609  50.232  0.00  0.00    +0.000 A 
ATOM     16  C   UNL     1      60.140  67.335  50.140  0.00  0.00    +0.000 A 
ATOM     17  O   UNL     1      59.761  67.517  49.430  0.00  0.00    +0.000 OA
ATOM     18  C   UNL     1      59.381  68.242  49.338  0.00  0.00    +0.000 C 
ATOM     19  C   UNL     1      59.002  68.424  48.628  0.00  0.00    +0.000 C 
ATOM     20  O   UNL     1      58.622  69.150  48.536  0.00  0.00    +0.000 OA
ATOM     21  C   UNL     1      60.138  67.881  50.760  0.00  0.00    +0.000 A 
ATOM     22  C   UNL     1      60.516  67.700  51.469  0.00  0.00    +0.000 A 
ATOM     23  O   UNL     1      60.515  68.246  52.088  0.00  0.00    +0.000 OA
ATOM     24  C   UNL     1      60.897  66.974  51.562  0.00  0.00    +0.000 A 
ATOM     25  C   UNL     1      61.275  66.793  52.271  0.00  0.00    +0.000 A 
ATOM     26  O   UNL     1      61.274  67.339  52.890  0.00  0.00    +0.000 OA
ATOM     27  C   UNL     1      62.038  64.795  51.835  0.00  0.00    +0.000 A 
ATOM     28  C   UNL     1      62.417  64.613  52.545  0.00  0.00    +0.000 A 
ATOM     29  C   UNL     1      62.797  63.887  52.637  0.00  0.00    +0.000 A 
ATOM     30  O   UNL     1      63.175  63.707  53.347  0.00  0.00    +0.000 OA
ATOM     31  C   UNL     1      63.556  62.980  53.439  0.00  0.00    +0.000 C 
ATOM     32  C   UNL     1      63.934  62.799  54.148  0.00  0.00    +0.000 C 
ATOM     33  O   UNL     1      64.315  62.073  54.240  0.00  0.00    +0.000 OA
ATOM     34  C   UNL     1      62.798  63.342  52.018  0.00  0.00    +0.000 A 
ATOM     35  O   UNL     1      63.179  62.616  52.109  0.00  0.00    +0.000 OA
ATOM     36  C   UNL     1      63.180  62.071  51.491  0.00  0.00    +0.000 C 
ATOM     37  C   UNL     1      63.561  61.344  51.582  0.00  0.00    +0.000 C 
ATOM     38  O   UNL     1      63.563  60.798  50.963  0.00  0.00    +0.000 OA
ATOM     39  C   UNL     1      62.420  63.522  51.308  0.00  0.00    +0.000 A 
ATOM     40  C   UNL     1      62.040  64.249  51.216  0.00  0.00    +0.000 A 
ATOM     41  C   UNL     1      62.411  66.250  54.403  0.00  0.00    +0.000 C 
ATOM     42  O   UNL     1      62.791  65.524  54.494  0.00  0.00    +0.000 OA
ATOM     43  C   UNL     1      62.410  66.795  55.021  0.00  0.00    +0.000 C 
ATOM     44  O   UNL     1      62.788  66.615  55.732  0.00  0.00    +0.000 OA
ATOM     45  C   UNL     1      62.029  67.522  54.930  0.00  0.00    +0.000 C 
ATOM     46  O   UNL     1      62.027  68.068  55.549  0.00  0.00    +0.000 OA
ATOM     47  C   UNL     1      60.133  69.517  52.616  0.00  0.00    +0.000 C 
ATOM     48  O   UNL     1      60.135  68.972  51.998  0.00  0.00    +0.000 OA
ATOM     49  C   UNL     1      59.752  70.244  52.524  0.00  0.00    +0.000 C 
ATOM     50  O   UNL     1      59.374  70.424  51.814  0.00  0.00    +0.000 OA
ATOM     51  C   UNL     1      59.750  70.790  53.143  0.00  0.00    +0.000 C 
ATOM     52  O   UNL     1      59.370  71.515  53.052  0.00  0.00    +0.000 OA
ENDROOT
TORSDOF 0
ENDMDL
MODEL 8
REMARK VINA RESULT:   -13.330      1.448      6.931
REMARK INTER + INTRA:         -13.330
REMARK INTER:                 -13.330
REMARK INTRA:                   0.000
REMARK UNBOUND:                 0.000
ROOT
REMARK  Name = troxerutin
REMARK                            x       y       z     vdW  Elec       q    Type
REMARK                         _______ _______ _______ _____ _____    ______ ____
ATOM      1  C   UNL     1      63.360  60.803  54.432  0.00  0.00    +0.000 C 
ATOM      2  C   UNL     1      63.231  61.280  53.770  0.00  0.00    +0.000 C 
ATOM      3  O   UNL     1      62.962  62.053  53.866  0.00  0.00    +0.000 OA
ATOM      4  C   UNL     1      62.832  62.530  53.205  0.00  0.00    +0.000 C 
ATOM      5  O   UNL     1      62.563  63.305  53.301  0.00  0.00    +0.000 OA
ATOM      6  C   UNL     1      62.424  63.601  54.058  0.00  0.00    +0.000 C 
ATOM      7  C   UNL     1      62.155  64.375  54.153  0.00  0.00    +0.000 C 
ATOM      8  O   UNL     1      62.026  64.851  53.493  0.00  0.00    +0.000 OA
ATOM      9  C   UNL     1      61.756  65.626  53.589  0.00  0.00    +0.000 C 
ATOM     10  O   UNL     1      61.627  66.103  52.928  0.00  0.00    +0.000 OA
ATOM     11  C   UNL     1      61.767  65.805  52.172  0.00  0.00    +0.000 A 
ATOM     12  C   UNL     1      61.637  66.282  51.510  0.00  0.00    +0.000 A 
ATOM     13  O   UNL     1      61.777  65.985  50.754  0.00  0.00    +0.000 OA
ATOM     14  C   UNL     1      62.045  65.211  50.658  0.00  0.00    +0.000 A 
ATOM     15  C   UNL     1      62.185  64.913  49.901  0.00  0.00    +0.000 A 
ATOM     16  C   UNL     1      62.454  64.140  49.805  0.00  0.00    +0.000 A 
ATOM     17  O   UNL     1      62.594  63.842  49.048  0.00  0.00    +0.000 OA
ATOM     18  C   UNL     1      62.862  63.069  48.952  0.00  0.00    +0.000 C 
ATOM     19  C   UNL     1      63.002  62.771  48.196  0.00  0.00    +0.000 C 
ATOM     20  O   UNL     1      63.271  61.997  48.099  0.00  0.00    +0.000 OA
ATOM     21  C   UNL     1      62.584  63.663  50.467  0.00  0.00    +0.000 A 
ATOM     22  C   UNL     1      62.444  63.960  51.223  0.00  0.00    +0.000 A 
ATOM     23  O   UNL     1      62.573  63.483  51.884  0.00  0.00    +0.000 OA
ATOM     24  C   UNL     1      62.175  64.734  51.320  0.00  0.00    +0.000 A 
ATOM     25  C   UNL     1      62.036  65.031  52.076  0.00  0.00    +0.000 A 
ATOM     26  O   UNL     1      62.165  64.555  52.736  0.00  0.00    +0.000 OA
ATOM     27  C   UNL     1      61.368  67.056  51.607  0.00  0.00    +0.000 A 
ATOM     28  C   UNL     1      61.228  67.354  52.364  0.00  0.00    +0.000 A 
ATOM     29  C   UNL     1      60.960  68.127  52.460  0.00  0.00    +0.000 A 
ATOM     30  O   UNL     1      60.820  68.425  53.216  0.00  0.00    +0.000 OA
ATOM     31  C   UNL     1      60.551  69.199  53.312  0.00  0.00    +0.000 C 
ATOM     32  C   UNL     1      60.412  69.496  54.069  0.00  0.00    +0.000 C 
ATOM     33  O   UNL     1      60.143  70.270  54.165  0.00  0.00    +0.000 OA
ATOM     34  C   UNL     1      60.830  68.604  51.799  0.00  0.00    +0.000 A 
ATOM     35  O   UNL     1      60.561  69.378  51.894  0.00  0.00    +0.000 OA
ATOM     36  C   UNL     1      60.432  69.854  51.234  0.00  0.00    +0.000 C 
ATOM     37  C   UNL     1      60.163  70.629  51.330  0.00  0.00    +0.000 C 
ATOM     38  O   UNL     1      60.033  71.105  50.669  0.00  0.00    +0.000 OA
ATOM     39  C   UNL     1      60.969  68.307  51.042  0.00  0.00    +0.000 A 
ATOM     40  C   UNL     1      61.239  67.533  50.946  0.00  0.00    +0.000 A 
ATOM     41  C   UNL     1      61.617  65.924  54.347  0.00  0.00    +0.000 C 
ATOM     42  O   UNL     1      61.348  66.698  54.442  0.00  0.00    +0.000 OA
ATOM     43  C   UNL     1      61.746  65.448  55.007  0.00  0.00    +0.000 C 
ATOM     44  O   UNL     1      61.607  65.744  55.764  0.00  0.00    +0.000 OA
ATOM     45  C   UNL     1      62.015  64.673  54.911  0.00  0.00    +0.000 C 
ATOM     46  O   UNL     1      62.145  64.196  55.572  0.00  0.00    +0.000 OA
ATOM     47  C   UNL     1      62.972  62.233  52.448  0.00  0.00    +0.000 C 
ATOM     48  O   UNL     1      62.842  62.709  51.788  0.00  0.00    +0.000 OA
ATOM     49  C   UNL     1      63.241  61.459  52.352  0.00  0.00    +0.000 C 
ATOM     50  O   UNL     1      63.380  61.162  51.596  0.00  0.00    +0.000 OA
ATOM     51  C   UNL     1      63.370  60.982  53.013  0.00  0.00    +0.000 C 
ATOM     52  O   UNL     1      63.639  60.209  52.917  0.00  0.00    +0.000 OA
ENDROOT
TORSDOF 0
ENDMDL
MODEL 9
REMARK VINA RESULT:   -13.171      1.802      4.841
REMARK INTER + INTRA:         -13.171
REMARK INTER:                 -13.171
REMARK INTRA:                   0.000
REMARK UNBOUND:                 0.000
ROOT
REMARK  Name = troxerutin
REMARK                            x       y       z     vdW  Elec       q    Type
REMARK                         _______ _______ _______ _____ _____    ______ ____
ATOM      1  C   UNL     1      63.077  66.954  54.855  0.00  0.00    +0.000 C 
ATOM      2  C   UNL     1      62.608  66.594  54.278  0.00  0.00    +0.000 C 
ATOM      3  O   UNL     1      62.720  65.798  54.093  0.00  0.00    +0.000 OA
ATOM      4  C   UNL     1      62.251  65.439  53.517  0.00  0.00    +0.000 C 
ATOM      5  O   UNL     1      62.362  64.642  53.332  0.00  0.00    +0.000 OA
ATOM      6  C   UNL     1      62.942  64.205  53.724  0.00  0.00    +0.000 C 
ATOM      7  C   UNL     1      63.053  63.409  53.539  0.00  0.00    +0.000 C 
ATOM      8  O   UNL     1      62.585  63.050  52.964  0.00  0.00    +0.000 OA
ATOM      9  C   UNL     1      62.697  62.253  52.779  0.00  0.00    +0.000 C 
ATOM     10  O   UNL     1      62.228  61.894  52.203  0.00  0.00    +0.000 OA
ATOM     11  C   UNL     1      61.648  62.332  51.811  0.00  0.00    +0.000 A 
ATOM     12  C   UNL     1      61.179  61.972  51.235  0.00  0.00    +0.000 A 
ATOM     13  O   UNL     1      60.600  62.409  50.843  0.00  0.00    +0.000 OA
ATOM     14  C   UNL     1      60.488  63.204  51.028  0.00  0.00    +0.000 A 
ATOM     15  C   UNL     1      59.908  63.642  50.636  0.00  0.00    +0.000 A 
ATOM     16  C   UNL     1      59.797  64.438  50.821  0.00  0.00    +0.000 A 
ATOM     17  O   UNL     1      59.217  64.875  50.429  0.00  0.00    +0.000 OA
ATOM     18  C   UNL     1      59.106  65.671  50.614  0.00  0.00    +0.000 C 
ATOM     19  C   UNL     1      58.526  66.109  50.222  0.00  0.00    +0.000 C 
ATOM     20  O   UNL     1      58.414  66.905  50.407  0.00  0.00    +0.000 OA
ATOM     21  C   UNL     1      60.266  64.798  51.398  0.00  0.00    +0.000 A 
ATOM     22  C   UNL     1      60.845  64.361  51.789  0.00  0.00    +0.000 A 
ATOM     23  O   UNL     1      61.314  64.720  52.365  0.00  0.00    +0.000 OA
ATOM     24  C   UNL     1      60.957  63.564  51.605  0.00  0.00    +0.000 A 
ATOM     25  C   UNL     1      61.537  63.127  51.996  0.00  0.00    +0.000 A 
ATOM     26  O   UNL     1      62.005  63.487  52.572  0.00  0.00    +0.000 OA
ATOM     27  C   UNL     1      61.291  61.175  51.050  0.00  0.00    +0.000 A 
ATOM     28  C   UNL     1      61.871  60.738  51.442  0.00  0.00    +0.000 A 
ATOM     29  C   UNL     1      61.982  59.942  51.257  0.00  0.00    +0.000 A 
ATOM     30  O   UNL     1      62.562  59.505  51.649  0.00  0.00    +0.000 OA
ATOM     31  C   UNL     1      62.674  58.709  51.464  0.00  0.00    +0.000 C 
ATOM     32  C   UNL     1      63.253  58.272  51.856  0.00  0.00    +0.000 C 
ATOM     33  O   UNL     1      63.365  57.475  51.671  0.00  0.00    +0.000 OA
ATOM     34  C   UNL     1      61.514  59.583  50.681  0.00  0.00    +0.000 A 
ATOM     35  O   UNL     1      61.625  58.786  50.496  0.00  0.00    +0.000 OA
ATOM     36  C   UNL     1      61.157  58.428  49.921  0.00  0.00    +0.000 C 
ATOM     37  C   UNL     1      61.268  57.631  49.736  0.00  0.00    +0.000 C 
ATOM     38  O   UNL     1      60.800  57.271  49.160  0.00  0.00    +0.000 OA
ATOM     39  C   UNL     1      60.934  60.019  50.289  0.00  0.00    +0.000 A 
ATOM     40  C   UNL     1      60.823  60.816  50.474  0.00  0.00    +0.000 A 
ATOM     41  C   UNL     1      63.277  61.816  53.171  0.00  0.00    +0.000 C 
ATOM     42  O   UNL     1      63.388  61.020  52.986  0.00  0.00    +0.000 OA
ATOM     43  C   UNL     1      63.745  62.175  53.746  0.00  0.00    +0.000 C 
ATOM     44  O   UNL     1      64.325  61.739  54.138  0.00  0.00    +0.000 OA
ATOM     45  C   UNL     1      63.634  62.972  53.931  0.00  0.00    +0.000 C 
ATOM     46  O   UNL     1      64.102  63.331  54.508  0.00  0.00    +0.000 OA
ATOM     47  C   UNL     1      61.671  65.875  53.125  0.00  0.00    +0.000 C 
ATOM     48  O   UNL     1      61.203  65.516  52.550  0.00  0.00    +0.000 OA
ATOM     49  C   UNL     1      61.560  66.672  53.310  0.00  0.00    +0.000 C 
ATOM     50  O   UNL     1      60.980  67.109  52.918  0.00  0.00    +0.000 OA
ATOM     51  C   UNL     1      62.028  67.031  53.886  0.00  0.00    +0.000 C 
ATOM     52  O   UNL     1      61.917  67.827  54.071  0.00  0.00    +0.000 OA
ENDROOT
TORSDOF 0
ENDMDL
