MODEL 1
REMARK VINA RESULT:   -14.139      0.000      0.000
REMARK INTER + INTRA:         -14.139
REMARK INTER:                 -14.139
REMARK INTRA:                   0.000
REMARK UNBOUND:                 0.000
ROOT
REMARK  Name = tucidinostat
REMARK                            x       y       z     vdW  Elec       q    Type
REMARK                         _______ _______ _______ _____ _____    ______ ____
ATOM      1  N   UNL     1      62.481  62.470  64.961  0.00  0.00    +0.000 NA
ATOM      2  C   UNL     1      61.778  62.040  64.930  0.00  0.00    +0.000 A 
ATOM      3  C   UNL     1      61.589  61.608  64.254  0.00  0.00    +0.000 A 
ATOM      4  C   UNL     1      60.885  61.177  64.223  0.00  0.00    +0.000 A 
ATOM      5  F   UNL     1      60.696  60.745  63.546  0.00  0.00    +0.000 F 
ATOM      6  C   UNL     1      60.372  61.179  64.868  0.00  0.00    +0.000 A 
ATOM      7  C   UNL     1      60.561  61.610  65.545  0.00  0.00    +0.000 A 
ATOM      8  C   UNL     1      61.265  62.042  65.577  0.00  0.00    +0.000 A 
ATOM      9  N   UNL     1      61.454  62.473  66.253  0.00  0.00    +0.000 NA
ATOM     10  C   UNL     1      60.941  62.475  66.899  0.00  0.00    +0.000 C 
ATOM     11  O   UNL     1      60.237  62.044  66.868  0.00  0.00    +0.000 OA
ATOM     12  C   UNL     1      61.130  62.906  67.576  0.00  0.00    +0.000 A 
ATOM     13  C   UNL     1      60.617  62.908  68.222  0.00  0.00    +0.000 A 
ATOM     14  C   UNL     1      60.807  63.340  68.898  0.00  0.00    +0.000 A 
ATOM     15  C   UNL     1      61.510  63.770  68.929  0.00  0.00    +0.000 A 
ATOM     16  C   UNL     1      61.699  64.203  69.607  0.00  0.00    +0.000 C 
ATOM     17  N   UNL     1      62.402  64.633  69.638  0.00  0.00    +0.000 NA
ATOM     18  C   UNL     1      62.592  65.065  70.314  0.00  0.00    +0.000 C 
ATOM     19  O   UNL     1      62.078  65.066  70.959  0.00  0.00    +0.000 OA
ATOM     20  C   UNL     1      63.295  65.495  70.345  0.00  0.00    +0.000 C 
ATOM     21  C   UNL     1      63.484  65.927  71.022  0.00  0.00    +0.000 C 
ATOM     22  C   UNL     1      64.188  66.358  71.053  0.00  0.00    +0.000 A 
ATOM     23  C   UNL     1      64.377  66.790  71.730  0.00  0.00    +0.000 A 
ATOM     24  C   UNL     1      65.080  67.220  71.761  0.00  0.00    +0.000 A 
ATOM     25  C   UNL     1      65.594  67.219  71.115  0.00  0.00    +0.000 A 
ATOM     26  N   UNL     1      65.404  66.787  70.439  0.00  0.00    +0.000 NA
ATOM     27  C   UNL     1      64.701  66.356  70.407  0.00  0.00    +0.000 A 
ATOM     28  C   UNL     1      62.023  63.769  68.284  0.00  0.00    +0.000 A 
ATOM     29  C   UNL     1      61.833  63.337  67.607  0.00  0.00    +0.000 A 
ENDROOT
TORSDOF 0
ENDMDL
MODEL 2
REMARK VINA RESULT:   -13.907      2.360      6.954
REMARK INTER + INTRA:         -13.907
REMARK INTER:                 -13.907
REMARK INTRA:                   0.000
REMARK UNBOUND:                 0.000
ROOT
REMARK  Name = tucidinostat
REMARK                            x       y       z     vdW  Elec       q    Type
REMARK                         _______ _______ _______ _____ _____    ______ ____
ATOM      1  N   UNL     1      65.071  66.365  69.810  0.00  0.00    +0.000 NA
ATOM      2  C   UNL     1      64.777  66.505  70.568  0.00  0.00    +0.000 A 
ATOM      3  C   UNL     1      65.181  67.008  71.080  0.00  0.00    +0.000 A 
ATOM      4  C   UNL     1      64.887  67.148  71.839  0.00  0.00    +0.000 A 
ATOM      5  F   UNL     1      65.291  67.652  72.352  0.00  0.00    +0.000 F 
ATOM      6  C   UNL     1      64.189  66.783  72.084  0.00  0.00    +0.000 A 
ATOM      7  C   UNL     1      63.784  66.279  71.571  0.00  0.00    +0.000 A 
ATOM      8  C   UNL     1      64.079  66.140  70.812  0.00  0.00    +0.000 A 
ATOM      9  N   UNL     1      63.675  65.636  70.299  0.00  0.00    +0.000 NA
ATOM     10  C   UNL     1      62.976  65.271  70.544  0.00  0.00    +0.000 C 
ATOM     11  O   UNL     1      62.681  65.411  71.303  0.00  0.00    +0.000 OA
ATOM     12  C   UNL     1      62.572  64.768  70.031  0.00  0.00    +0.000 A 
ATOM     13  C   UNL     1      61.873  64.402  70.276  0.00  0.00    +0.000 A 
ATOM     14  C   UNL     1      61.469  63.899  69.763  0.00  0.00    +0.000 A 
ATOM     15  C   UNL     1      61.764  63.760  69.005  0.00  0.00    +0.000 A 
ATOM     16  C   UNL     1      61.359  63.255  68.491  0.00  0.00    +0.000 C 
ATOM     17  N   UNL     1      61.653  63.116  67.734  0.00  0.00    +0.000 NA
ATOM     18  C   UNL     1      61.249  62.612  67.220  0.00  0.00    +0.000 C 
ATOM     19  O   UNL     1      60.551  62.248  67.466  0.00  0.00    +0.000 OA
ATOM     20  C   UNL     1      61.543  62.473  66.462  0.00  0.00    +0.000 C 
ATOM     21  C   UNL     1      61.139  61.970  65.950  0.00  0.00    +0.000 C 
ATOM     22  C   UNL     1      61.434  61.830  65.191  0.00  0.00    +0.000 A 
ATOM     23  C   UNL     1      61.029  61.326  64.678  0.00  0.00    +0.000 A 
ATOM     24  C   UNL     1      61.323  61.187  63.920  0.00  0.00    +0.000 A 
ATOM     25  C   UNL     1      62.022  61.552  63.675  0.00  0.00    +0.000 A 
ATOM     26  N   UNL     1      62.426  62.055  64.188  0.00  0.00    +0.000 NA
ATOM     27  C   UNL     1      62.132  62.195  64.946  0.00  0.00    +0.000 A 
ATOM     28  C   UNL     1      62.462  64.124  68.759  0.00  0.00    +0.000 A 
ATOM     29  C   UNL     1      62.866  64.628  69.273  0.00  0.00    +0.000 A 
ENDROOT
TORSDOF 0
ENDMDL
MODEL 3
REMARK VINA RESULT:   -13.638      3.753      6.882
REMARK INTER + INTRA:         -13.638
REMARK INTER:                 -13.638
REMARK INTRA:                   0.000
REMARK UNBOUND:                 0.000
ROOT
REMARK  Name = tucidinostat
REMARK                            x       y       z     vdW  Elec       q    Type
REMARK                         _______ _______ _______ _____ _____    ______ ____
ATOM      1  N   UNL     1      59.435  67.034  70.604  0.00  0.00    +0.000 NA
ATOM      2  C   UNL     1      59.235  66.813  71.373  0.00  0.00    +0.000 A 
ATOM      3  C   UNL     1      58.973  67.380  71.910  0.00  0.00    +0.000 A 
ATOM      4  C   UNL     1      58.773  67.159  72.681  0.00  0.00    +0.000 A 
ATOM      5  F   UNL     1      58.510  67.728  73.218  0.00  0.00    +0.000 F 
ATOM      6  C   UNL     1      58.837  66.370  72.912  0.00  0.00    +0.000 A 
ATOM      7  C   UNL     1      59.100  65.802  72.375  0.00  0.00    +0.000 A 
ATOM      8  C   UNL     1      59.299  66.023  71.605  0.00  0.00    +0.000 A 
ATOM      9  N   UNL     1      59.562  65.455  71.068  0.00  0.00    +0.000 NA
ATOM     10  C   UNL     1      59.626  64.666  71.300  0.00  0.00    +0.000 C 
ATOM     11  O   UNL     1      59.427  64.445  72.070  0.00  0.00    +0.000 OA
ATOM     12  C   UNL     1      59.889  64.098  70.763  0.00  0.00    +0.000 A 
ATOM     13  C   UNL     1      59.953  63.309  70.994  0.00  0.00    +0.000 A 
ATOM     14  C   UNL     1      60.216  62.741  70.457  0.00  0.00    +0.000 A 
ATOM     15  C   UNL     1      60.415  62.962  69.688  0.00  0.00    +0.000 A 
ATOM     16  C   UNL     1      60.678  62.394  69.150  0.00  0.00    +0.000 C 
ATOM     17  N   UNL     1      60.877  62.614  68.381  0.00  0.00    +0.000 NA
ATOM     18  C   UNL     1      61.140  62.047  67.844  0.00  0.00    +0.000 C 
ATOM     19  O   UNL     1      61.203  61.258  68.076  0.00  0.00    +0.000 OA
ATOM     20  C   UNL     1      61.339  62.268  67.074  0.00  0.00    +0.000 C 
ATOM     21  C   UNL     1      61.602  61.700  66.537  0.00  0.00    +0.000 C 
ATOM     22  C   UNL     1      61.801  61.922  65.767  0.00  0.00    +0.000 A 
ATOM     23  C   UNL     1      62.064  61.353  65.230  0.00  0.00    +0.000 A 
ATOM     24  C   UNL     1      62.263  61.574  64.460  0.00  0.00    +0.000 A 
ATOM     25  C   UNL     1      62.200  62.364  64.228  0.00  0.00    +0.000 A 
ATOM     26  N   UNL     1      61.937  62.931  64.766  0.00  0.00    +0.000 NA
ATOM     27  C   UNL     1      61.738  62.710  65.535  0.00  0.00    +0.000 A 
ATOM     28  C   UNL     1      60.351  63.751  69.455  0.00  0.00    +0.000 A 
ATOM     29  C   UNL     1      60.088  64.319  69.993  0.00  0.00    +0.000 A 
ENDROOT
TORSDOF 0
ENDMDL
