MODEL 1
REMARK VINA RESULT:   -10.054      0.000      0.000
REMARK INTER + INTRA:         -10.054
REMARK INTER:                 -10.054
REMARK INTRA:                   0.000
REMARK UNBOUND:                 0.000
ROOT
REMARK  Name = tymazoline
REMARK                            x       y       z     vdW  Elec       q    Type
REMARK                         _______ _______ _______ _____ _____    ______ ____
ATOM      1  C   UNL     1      59.283  61.987  66.327  0.00  0.00    +0.000 C 
ATOM      2  C   UNL     1      60.055  62.246  66.463  0.00  0.00    +0.000 C 
ATOM      3  C   UNL     1      60.239  62.650  67.158  0.00  0.00    +0.000 C 
ATOM      4  C   UNL     1      60.643  62.100  65.902  0.00  0.00    +0.000 A 
ATOM      5  C   UNL     1      61.414  62.358  66.038  0.00  0.00    +0.000 A 
ATOM      6  O   UNL     1      61.598  62.762  66.734  0.00  0.00    +0.000 OA
ATOM      7  C   UNL     1      61.011  62.908  67.293  0.00  0.00    +0.000 C 
ATOM      8  C   UNL     1      61.195  63.312  67.988  0.00  0.00    +0.000 C 
ATOM      9  N   UNL     1      60.667  63.497  68.596  0.00  0.00    +0.000 NA
ATOM     10  C   UNL     1      61.085  63.901  69.182  0.00  0.00    +0.000 C 
ATOM     11  C   UNL     1      61.870  63.966  68.936  0.00  0.00    +0.000 C 
ATOM     12  N   UNL     1      61.938  63.601  68.199  0.00  0.00    +0.000 NA
ATOM     13  C   UNL     1      62.003  62.212  65.477  0.00  0.00    +0.000 A 
ATOM     14  C   UNL     1      61.819  61.808  64.782  0.00  0.00    +0.000 A 
ATOM     15  C   UNL     1      62.406  61.662  64.222  0.00  0.00    +0.000 C 
ATOM     16  C   UNL     1      61.047  61.550  64.647  0.00  0.00    +0.000 A 
ATOM     17  C   UNL     1      60.459  61.696  65.207  0.00  0.00    +0.000 A 
ENDROOT
TORSDOF 0
ENDMDL
MODEL 2
REMARK VINA RESULT:    -9.121      3.960      5.551
REMARK INTER + INTRA:          -9.121
REMARK INTER:                  -9.121
REMARK INTRA:                   0.000
REMARK UNBOUND:                 0.000
ROOT
REMARK  Name = tymazoline
REMARK                            x       y       z     vdW  Elec       q    Type
REMARK                         _______ _______ _______ _____ _____    ______ ____
ATOM      1  C   UNL     1      61.641  62.801  72.986  0.00  0.00    +0.000 C 
ATOM      2  C   UNL     1      61.101  63.144  72.466  0.00  0.00    +0.000 C 
ATOM      3  C   UNL     1      60.728  63.852  72.666  0.00  0.00    +0.000 C 
ATOM      4  C   UNL     1      60.934  62.779  71.745  0.00  0.00    +0.000 A 
ATOM      5  C   UNL     1      60.394  63.122  71.225  0.00  0.00    +0.000 A 
ATOM      6  O   UNL     1      60.020  63.830  71.425  0.00  0.00    +0.000 OA
ATOM      7  C   UNL     1      60.187  64.195  72.145  0.00  0.00    +0.000 C 
ATOM      8  C   UNL     1      59.814  64.903  72.345  0.00  0.00    +0.000 C 
ATOM      9  N   UNL     1      59.925  65.329  73.043  0.00  0.00    +0.000 NA
ATOM     10  C   UNL     1      59.444  65.999  73.012  0.00  0.00    +0.000 C 
ATOM     11  C   UNL     1      59.035  65.986  72.295  0.00  0.00    +0.000 C 
ATOM     12  N   UNL     1      59.264  65.308  71.883  0.00  0.00    +0.000 NA
ATOM     13  C   UNL     1      60.227  62.757  70.503  0.00  0.00    +0.000 A 
ATOM     14  C   UNL     1      60.600  62.049  70.303  0.00  0.00    +0.000 A 
ATOM     15  C   UNL     1      60.433  61.684  69.583  0.00  0.00    +0.000 C 
ATOM     16  C   UNL     1      61.140  61.706  70.825  0.00  0.00    +0.000 A 
ATOM     17  C   UNL     1      61.307  62.071  71.545  0.00  0.00    +0.000 A 
ENDROOT
TORSDOF 0
ENDMDL
MODEL 3
REMARK VINA RESULT:    -9.043      2.652      5.374
REMARK INTER + INTRA:          -9.043
REMARK INTER:                  -9.043
REMARK INTRA:                   0.000
REMARK UNBOUND:                 0.000
ROOT
REMARK  Name = tymazoline
REMARK                            x       y       z     vdW  Elec       q    Type
REMARK                         _______ _______ _______ _____ _____    ______ ____
ATOM      1  C   UNL     1      61.564  61.297  71.598  0.00  0.00    +0.000 C 
ATOM      2  C   UNL     1      61.248  61.952  71.208  0.00  0.00    +0.000 C 
ATOM      3  C   UNL     1      61.030  61.896  70.415  0.00  0.00    +0.000 C 
ATOM      4  C   UNL     1      61.151  62.665  71.613  0.00  0.00    +0.000 A 
ATOM      5  C   UNL     1      60.836  63.320  71.224  0.00  0.00    +0.000 A 
ATOM      6  O   UNL     1      60.618  63.264  70.430  0.00  0.00    +0.000 OA
ATOM      7  C   UNL     1      60.715  62.552  70.026  0.00  0.00    +0.000 C 
ATOM      8  C   UNL     1      60.496  62.495  69.233  0.00  0.00    +0.000 C 
ATOM      9  N   UNL     1      60.561  61.822  68.759  0.00  0.00    +0.000 NA
ATOM     10  C   UNL     1      60.279  62.012  68.007  0.00  0.00    +0.000 C 
ATOM     11  C   UNL     1      60.041  62.802  68.016  0.00  0.00    +0.000 C 
ATOM     12  N   UNL     1      60.175  63.100  68.773  0.00  0.00    +0.000 NA
ATOM     13  C   UNL     1      60.739  64.033  71.629  0.00  0.00    +0.000 A 
ATOM     14  C   UNL     1      60.958  64.090  72.422  0.00  0.00    +0.000 A 
ATOM     15  C   UNL     1      60.861  64.802  72.826  0.00  0.00    +0.000 C 
ATOM     16  C   UNL     1      61.273  63.434  72.811  0.00  0.00    +0.000 A 
ATOM     17  C   UNL     1      61.370  62.722  72.407  0.00  0.00    +0.000 A 
ENDROOT
TORSDOF 0
ENDMDL
MODEL 4
REMARK VINA RESULT:    -8.753      3.589      5.233
REMARK INTER + INTRA:          -8.753
REMARK INTER:                  -8.753
REMARK INTRA:                   0.000
REMARK UNBOUND:                 0.000
ROOT
REMARK  Name = tymazoline
REMARK                            x       y       z     vdW  Elec       q    Type
REMARK                         _______ _______ _______ _____ _____    ______ ____
ATOM      1  C   UNL     1      61.620  62.422  72.886  0.00  0.00    +0.000 C 
ATOM      2  C   UNL     1      61.562  62.981  72.283  0.00  0.00    +0.000 C 
ATOM      3  C   UNL     1      61.780  63.765  72.423  0.00  0.00    +0.000 C 
ATOM      4  C   UNL     1      61.285  62.757  71.538  0.00  0.00    +0.000 A 
ATOM      5  C   UNL     1      61.227  63.316  70.934  0.00  0.00    +0.000 A 
ATOM      6  O   UNL     1      61.445  64.099  71.075  0.00  0.00    +0.000 OA
ATOM      7  C   UNL     1      61.721  64.323  71.819  0.00  0.00    +0.000 C 
ATOM      8  C   UNL     1      61.939  65.106  71.959  0.00  0.00    +0.000 C 
ATOM      9  N   UNL     1      62.224  65.410  72.672  0.00  0.00    +0.000 NA
ATOM     10  C   UNL     1      62.372  66.215  72.565  0.00  0.00    +0.000 C 
ATOM     11  C   UNL     1      62.179  66.409  71.786  0.00  0.00    +0.000 C 
ATOM     12  N   UNL     1      61.912  65.723  71.412  0.00  0.00    +0.000 NA
ATOM     13  C   UNL     1      60.951  63.091  70.190  0.00  0.00    +0.000 A 
ATOM     14  C   UNL     1      60.733  62.308  70.049  0.00  0.00    +0.000 A 
ATOM     15  C   UNL     1      60.457  62.084  69.305  0.00  0.00    +0.000 C 
ATOM     16  C   UNL     1      60.791  61.750  70.654  0.00  0.00    +0.000 A 
ATOM     17  C   UNL     1      61.067  61.974  71.398  0.00  0.00    +0.000 A 
ENDROOT
TORSDOF 0
ENDMDL
MODEL 5
REMARK VINA RESULT:    -8.665      1.575      3.861
REMARK INTER + INTRA:          -8.665
REMARK INTER:                  -8.665
REMARK INTRA:                   0.000
REMARK UNBOUND:                 0.000
ROOT
REMARK  Name = tymazoline
REMARK                            x       y       z     vdW  Elec       q    Type
REMARK                         _______ _______ _______ _____ _____    ______ ____
ATOM      1  C   UNL     1      61.502  64.394  68.686  0.00  0.00    +0.000 C 
ATOM      2  C   UNL     1      61.340  63.615  68.467  0.00  0.00    +0.000 C 
ATOM      3  C   UNL     1      61.469  63.368  67.691  0.00  0.00    +0.000 C 
ATOM      4  C   UNL     1      61.048  63.082  69.027  0.00  0.00    +0.000 A 
ATOM      5  C   UNL     1      60.886  62.303  68.808  0.00  0.00    +0.000 A 
ATOM      6  O   UNL     1      61.015  62.057  68.031  0.00  0.00    +0.000 OA
ATOM      7  C   UNL     1      61.307  62.589  67.473  0.00  0.00    +0.000 C 
ATOM      8  C   UNL     1      61.436  62.343  66.697  0.00  0.00    +0.000 C 
ATOM      9  N   UNL     1      61.724  62.811  66.081  0.00  0.00    +0.000 NA
ATOM     10  C   UNL     1      61.766  62.343  65.403  0.00  0.00    +0.000 C 
ATOM     11  C   UNL     1      61.504  61.585  65.599  0.00  0.00    +0.000 C 
ATOM     12  N   UNL     1      61.300  61.586  66.399  0.00  0.00    +0.000 NA
ATOM     13  C   UNL     1      60.594  61.771  69.367  0.00  0.00    +0.000 A 
ATOM     14  C   UNL     1      60.465  62.017  70.144  0.00  0.00    +0.000 A 
ATOM     15  C   UNL     1      60.174  61.485  70.702  0.00  0.00    +0.000 C 
ATOM     16  C   UNL     1      60.628  62.796  70.361  0.00  0.00    +0.000 A 
ATOM     17  C   UNL     1      60.919  63.328  69.803  0.00  0.00    +0.000 A 
ENDROOT
TORSDOF 0
ENDMDL
MODEL 6
REMARK VINA RESULT:    -8.501      1.812      3.111
REMARK INTER + INTRA:          -8.501
REMARK INTER:                  -8.501
REMARK INTRA:                   0.000
REMARK UNBOUND:                 0.000
ROOT
REMARK  Name = tymazoline
REMARK                            x       y       z     vdW  Elec       q    Type
REMARK                         _______ _______ _______ _____ _____    ______ ____
ATOM      1  C   UNL     1      60.489  61.839  70.404  0.00  0.00    +0.000 C 
ATOM      2  C   UNL     1      60.889  62.421  69.978  0.00  0.00    +0.000 C 
ATOM      3  C   UNL     1      61.384  62.953  70.370  0.00  0.00    +0.000 C 
ATOM      4  C   UNL     1      60.795  62.472  69.159  0.00  0.00    +0.000 A 
ATOM      5  C   UNL     1      61.196  63.054  68.734  0.00  0.00    +0.000 A 
ATOM      6  O   UNL     1      61.690  63.585  69.126  0.00  0.00    +0.000 OA
ATOM      7  C   UNL     1      61.784  63.535  69.943  0.00  0.00    +0.000 C 
ATOM      8  C   UNL     1      62.278  64.066  70.335  0.00  0.00    +0.000 C 
ATOM      9  N   UNL     1      62.426  64.083  71.147  0.00  0.00    +0.000 NA
ATOM     10  C   UNL     1      62.951  64.702  71.298  0.00  0.00    +0.000 C 
ATOM     11  C   UNL     1      63.128  65.067  70.580  0.00  0.00    +0.000 C 
ATOM     12  N   UNL     1      62.712  64.674  69.985  0.00  0.00    +0.000 NA
ATOM     13  C   UNL     1      61.101  63.104  67.915  0.00  0.00    +0.000 A 
ATOM     14  C   UNL     1      60.607  62.572  67.523  0.00  0.00    +0.000 A 
ATOM     15  C   UNL     1      60.513  62.623  66.706  0.00  0.00    +0.000 C 
ATOM     16  C   UNL     1      60.207  61.991  67.950  0.00  0.00    +0.000 A 
ATOM     17  C   UNL     1      60.301  61.940  68.768  0.00  0.00    +0.000 A 
ENDROOT
TORSDOF 0
ENDMDL
MODEL 7
REMARK VINA RESULT:    -8.016      4.671      6.739
REMARK INTER + INTRA:          -8.016
REMARK INTER:                  -8.016
REMARK INTRA:                   0.000
REMARK UNBOUND:                 0.000
ROOT
REMARK  Name = tymazoline
REMARK                            x       y       z     vdW  Elec       q    Type
REMARK                         _______ _______ _______ _____ _____    ______ ____
ATOM      1  C   UNL     1      61.697  64.934  72.929  0.00  0.00    +0.000 C 
ATOM      2  C   UNL     1      61.049  64.549  72.593  0.00  0.00    +0.000 C 
ATOM      3  C   UNL     1      61.157  63.844  72.178  0.00  0.00    +0.000 C 
ATOM      4  C   UNL     1      60.293  64.870  72.672  0.00  0.00    +0.000 A 
ATOM      5  C   UNL     1      59.645  64.485  72.335  0.00  0.00    +0.000 A 
ATOM      6  O   UNL     1      59.753  63.781  71.920  0.00  0.00    +0.000 OA
ATOM      7  C   UNL     1      60.509  63.461  71.841  0.00  0.00    +0.000 C 
ATOM      8  C   UNL     1      60.617  62.756  71.426  0.00  0.00    +0.000 C 
ATOM      9  N   UNL     1      61.337  62.371  71.303  0.00  0.00    +0.000 NA
ATOM     10  C   UNL     1      61.189  61.689  70.862  0.00  0.00    +0.000 C 
ATOM     11  C   UNL     1      60.378  61.653  70.713  0.00  0.00    +0.000 C 
ATOM     12  N   UNL     1      60.025  62.312  71.062  0.00  0.00    +0.000 NA
ATOM     13  C   UNL     1      58.888  64.806  72.414  0.00  0.00    +0.000 A 
ATOM     14  C   UNL     1      58.780  65.511  72.829  0.00  0.00    +0.000 A 
ATOM     15  C   UNL     1      58.025  65.831  72.908  0.00  0.00    +0.000 C 
ATOM     16  C   UNL     1      59.429  65.895  73.165  0.00  0.00    +0.000 A 
ATOM     17  C   UNL     1      60.185  65.575  73.087  0.00  0.00    +0.000 A 
ENDROOT
TORSDOF 0
ENDMDL
MODEL 8
REMARK VINA RESULT:    -7.859      5.052      6.547
REMARK INTER + INTRA:          -7.859
REMARK INTER:                  -7.859
REMARK INTRA:                   0.000
REMARK UNBOUND:                 0.000
ROOT
REMARK  Name = tymazoline
REMARK                            x       y       z     vdW  Elec       q    Type
REMARK                         _______ _______ _______ _____ _____    ______ ____
ATOM      1  C   UNL     1      63.525  64.254  69.744  0.00  0.00    +0.000 C 
ATOM      2  C   UNL     1      63.596  64.840  70.321  0.00  0.00    +0.000 C 
ATOM      3  C   UNL     1      64.195  65.404  70.266  0.00  0.00    +0.000 C 
ATOM      4  C   UNL     1      63.065  64.861  70.953  0.00  0.00    +0.000 A 
ATOM      5  C   UNL     1      63.136  65.447  71.530  0.00  0.00    +0.000 A 
ATOM      6  O   UNL     1      63.735  66.011  71.475  0.00  0.00    +0.000 OA
ATOM      7  C   UNL     1      64.265  65.989  70.843  0.00  0.00    +0.000 C 
ATOM      8  C   UNL     1      64.864  66.553  70.788  0.00  0.00    +0.000 C 
ATOM      9  N   UNL     1      65.432  66.601  70.191  0.00  0.00    +0.000 NA
ATOM     10  C   UNL     1      65.920  67.246  70.354  0.00  0.00    +0.000 C 
ATOM     11  C   UNL     1      65.654  67.596  71.052  0.00  0.00    +0.000 C 
ATOM     12  N   UNL     1      65.002  67.168  71.320  0.00  0.00    +0.000 NA
ATOM     13  C   UNL     1      62.605  65.468  72.162  0.00  0.00    +0.000 A 
ATOM     14  C   UNL     1      62.006  64.904  72.217  0.00  0.00    +0.000 A 
ATOM     15  C   UNL     1      61.477  64.926  72.849  0.00  0.00    +0.000 C 
ATOM     16  C   UNL     1      61.937  64.319  71.640  0.00  0.00    +0.000 A 
ATOM     17  C   UNL     1      62.466  64.297  71.008  0.00  0.00    +0.000 A 
ENDROOT
TORSDOF 0
ENDMDL
MODEL 9
REMARK VINA RESULT:    -7.667      5.549      6.839
REMARK INTER + INTRA:          -7.667
REMARK INTER:                  -7.667
REMARK INTRA:                   0.000
REMARK UNBOUND:                 0.000
ROOT
REMARK  Name = tymazoline
REMARK                            x       y       z     vdW  Elec       q    Type
REMARK                         _______ _______ _______ _____ _____    ______ ____
ATOM      1  C   UNL     1      64.487  67.706  72.112  0.00  0.00    +0.000 C 
ATOM      2  C   UNL     1      63.909  67.182  71.843  0.00  0.00    +0.000 C 
ATOM      3  C   UNL     1      63.152  67.199  72.168  0.00  0.00    +0.000 C 
ATOM      4  C   UNL     1      64.091  66.639  71.247  0.00  0.00    +0.000 A 
ATOM      5  C   UNL     1      63.513  66.115  70.978  0.00  0.00    +0.000 A 
ATOM      6  O   UNL     1      62.756  66.133  71.304  0.00  0.00    +0.000 OA
ATOM      7  C   UNL     1      62.575  66.674  71.899  0.00  0.00    +0.000 C 
ATOM      8  C   UNL     1      61.817  66.691  72.224  0.00  0.00    +0.000 C 
ATOM      9  N   UNL     1      61.557  67.200  72.820  0.00  0.00    +0.000 NA
ATOM     10  C   UNL     1      60.765  67.026  72.976  0.00  0.00    +0.000 C 
ATOM     11  C   UNL     1      60.537  66.411  72.476  0.00  0.00    +0.000 C 
ATOM     12  N   UNL     1      61.187  66.204  72.012  0.00  0.00    +0.000 NA
ATOM     13  C   UNL     1      63.694  65.573  70.382  0.00  0.00    +0.000 A 
ATOM     14  C   UNL     1      64.452  65.556  70.057  0.00  0.00    +0.000 A 
ATOM     15  C   UNL     1      64.633  65.014  69.462  0.00  0.00    +0.000 C 
ATOM     16  C   UNL     1      65.029  66.081  70.327  0.00  0.00    +0.000 A 
ATOM     17  C   UNL     1      64.848  66.622  70.921  0.00  0.00    +0.000 A 
ENDROOT
TORSDOF 0
ENDMDL
