MODEL 1
REMARK VINA RESULT:    -7.761      0.000      0.000
REMARK INTER + INTRA:          -7.761
REMARK INTER:                  -7.761
REMARK INTRA:                   0.000
REMARK UNBOUND:                 0.000
ROOT
REMARK  Name = tyrosine
REMARK                            x       y       z     vdW  Elec       q    Type
REMARK                         _______ _______ _______ _____ _____    ______ ____
ATOM      1  N   TYR A   1      61.317  62.852  66.482  0.00  0.00    +0.000 NA
ATOM      2  CA  TYR A   1      60.612  62.425  66.426  0.00  0.00    +0.000 C 
ATOM      3  CB  TYR A   1      60.480  61.931  65.779  0.00  0.00    +0.000 C 
ATOM      4  CG  TYR A   1      61.051  61.863  65.188  0.00  0.00    +0.000 A 
ATOM      5  CD1 TYR A   1      60.919  61.369  64.541  0.00  0.00    +0.000 A 
ATOM      6  CE1 TYR A   1      61.491  61.301  63.950  0.00  0.00    +0.000 A 
ATOM      7  CZ  TYR A   1      62.194  61.727  64.006  0.00  0.00    +0.000 A 
ATOM      8  OH  TYR A   1      62.766  61.659  63.415  0.00  0.00    +0.000 OA
ATOM      9  CE2 TYR A   1      62.327  62.222  64.653  0.00  0.00    +0.000 A 
ATOM     10  CD2 TYR A   1      61.755  62.290  65.244  0.00  0.00    +0.000 A 
ATOM     11  C   TYR A   1      60.040  62.493  67.017  0.00  0.00    +0.000 C 
ATOM     12  O   TYR A   1      60.173  62.988  67.664  0.00  0.00    +0.000 OA
ATOM     13  OXT TYR A   1      59.337  62.066  66.961  0.00  0.00    +0.000 OA
ENDROOT
TORSDOF 0
ENDMDL
MODEL 2
REMARK VINA RESULT:    -7.382      0.772      3.190
REMARK INTER + INTRA:          -7.382
REMARK INTER:                  -7.382
REMARK INTRA:                   0.000
REMARK UNBOUND:                 0.000
ROOT
REMARK  Name = tyrosine
REMARK                            x       y       z     vdW  Elec       q    Type
REMARK                         _______ _______ _______ _____ _____    ______ ____
ATOM      1  N   TYR A   1      62.096  62.323  65.394  0.00  0.00    +0.000 NA
ATOM      2  CA  TYR A   1      61.568  61.910  64.912  0.00  0.00    +0.000 C 
ATOM      3  CB  TYR A   1      60.788  61.794  65.159  0.00  0.00    +0.000 C 
ATOM      4  CG  TYR A   1      60.538  62.092  65.886  0.00  0.00    +0.000 A 
ATOM      5  CD1 TYR A   1      59.759  61.976  66.133  0.00  0.00    +0.000 A 
ATOM      6  CE1 TYR A   1      59.509  62.274  66.861  0.00  0.00    +0.000 A 
ATOM      7  CZ  TYR A   1      60.036  62.686  67.341  0.00  0.00    +0.000 A 
ATOM      8  OH  TYR A   1      59.785  62.984  68.069  0.00  0.00    +0.000 OA
ATOM      9  CE2 TYR A   1      60.815  62.802  67.095  0.00  0.00    +0.000 A 
ATOM     10  CD2 TYR A   1      61.066  62.505  66.367  0.00  0.00    +0.000 A 
ATOM     11  C   TYR A   1      61.818  61.613  64.185  0.00  0.00    +0.000 C 
ATOM     12  O   TYR A   1      62.597  61.729  63.939  0.00  0.00    +0.000 OA
ATOM     13  OXT TYR A   1      61.290  61.200  63.704  0.00  0.00    +0.000 OA
ENDROOT
TORSDOF 0
ENDMDL
MODEL 3
REMARK VINA RESULT:    -6.707      2.640      4.729
REMARK INTER + INTRA:          -6.707
REMARK INTER:                  -6.707
REMARK INTRA:                   0.000
REMARK UNBOUND:                 0.000
ROOT
REMARK  Name = tyrosine
REMARK                            x       y       z     vdW  Elec       q    Type
REMARK                         _______ _______ _______ _____ _____    ______ ____
ATOM      1  N   TYR A   1      61.205  63.474  68.207  0.00  0.00    +0.000 NA
ATOM      2  CA  TYR A   1      61.079  62.708  67.926  0.00  0.00    +0.000 C 
ATOM      3  CB  TYR A   1      60.819  62.117  68.441  0.00  0.00    +0.000 C 
ATOM      4  CG  TYR A   1      60.685  62.292  69.235  0.00  0.00    +0.000 A 
ATOM      5  CD1 TYR A   1      60.426  61.702  69.749  0.00  0.00    +0.000 A 
ATOM      6  CE1 TYR A   1      60.292  61.877  70.544  0.00  0.00    +0.000 A 
ATOM      7  CZ  TYR A   1      60.418  62.642  70.825  0.00  0.00    +0.000 A 
ATOM      8  OH  TYR A   1      60.284  62.817  71.621  0.00  0.00    +0.000 OA
ATOM      9  CE2 TYR A   1      60.678  63.233  70.311  0.00  0.00    +0.000 A 
ATOM     10  CD2 TYR A   1      60.812  63.058  69.516  0.00  0.00    +0.000 A 
ATOM     11  C   TYR A   1      61.213  62.533  67.131  0.00  0.00    +0.000 C 
ATOM     12  O   TYR A   1      61.473  63.124  66.617  0.00  0.00    +0.000 OA
ATOM     13  OXT TYR A   1      61.086  61.767  66.850  0.00  0.00    +0.000 OA
ENDROOT
TORSDOF 0
ENDMDL
MODEL 4
REMARK VINA RESULT:    -6.540      4.050      5.486
REMARK INTER + INTRA:          -6.540
REMARK INTER:                  -6.540
REMARK INTRA:                   0.000
REMARK UNBOUND:                 0.000
ROOT
REMARK  Name = tyrosine
REMARK                            x       y       z     vdW  Elec       q    Type
REMARK                         _______ _______ _______ _____ _____    ______ ____
ATOM      1  N   TYR A   1      61.591  63.930  71.006  0.00  0.00    +0.000 NA
ATOM      2  CA  TYR A   1      61.438  63.375  71.599  0.00  0.00    +0.000 C 
ATOM      3  CB  TYR A   1      61.083  62.654  71.408  0.00  0.00    +0.000 C 
ATOM      4  CG  TYR A   1      60.881  62.489  70.626  0.00  0.00    +0.000 A 
ATOM      5  CD1 TYR A   1      60.526  61.769  70.435  0.00  0.00    +0.000 A 
ATOM      6  CE1 TYR A   1      60.324  61.603  69.653  0.00  0.00    +0.000 A 
ATOM      7  CZ  TYR A   1      60.476  62.156  69.062  0.00  0.00    +0.000 A 
ATOM      8  OH  TYR A   1      60.274  61.990  68.278  0.00  0.00    +0.000 OA
ATOM      9  CE2 TYR A   1      60.831  62.877  69.251  0.00  0.00    +0.000 A 
ATOM     10  CD2 TYR A   1      61.033  63.043  70.034  0.00  0.00    +0.000 A 
ATOM     11  C   TYR A   1      61.641  63.541  72.381  0.00  0.00    +0.000 C 
ATOM     12  O   TYR A   1      61.995  64.262  72.571  0.00  0.00    +0.000 OA
ATOM     13  OXT TYR A   1      61.488  62.987  72.973  0.00  0.00    +0.000 OA
ENDROOT
TORSDOF 0
ENDMDL
MODEL 5
REMARK VINA RESULT:    -6.436      6.659      7.516
REMARK INTER + INTRA:          -6.436
REMARK INTER:                  -6.436
REMARK INTRA:                   0.000
REMARK UNBOUND:                 0.000
ROOT
REMARK  Name = tyrosine
REMARK                            x       y       z     vdW  Elec       q    Type
REMARK                         _______ _______ _______ _____ _____    ______ ____
ATOM      1  N   TYR A   1      63.894  65.105  69.870  0.00  0.00    +0.000 NA
ATOM      2  CA  TYR A   1      63.650  65.190  70.654  0.00  0.00    +0.000 C 
ATOM      3  CB  TYR A   1      63.977  65.785  71.125  0.00  0.00    +0.000 C 
ATOM      4  CG  TYR A   1      64.545  66.293  70.812  0.00  0.00    +0.000 A 
ATOM      5  CD1 TYR A   1      64.871  66.887  71.281  0.00  0.00    +0.000 A 
ATOM      6  CE1 TYR A   1      65.441  67.396  70.968  0.00  0.00    +0.000 A 
ATOM      7  CZ  TYR A   1      65.683  67.310  70.185  0.00  0.00    +0.000 A 
ATOM      8  OH  TYR A   1      66.253  67.819  69.871  0.00  0.00    +0.000 OA
ATOM      9  CE2 TYR A   1      65.358  66.716  69.714  0.00  0.00    +0.000 A 
ATOM     10  CD2 TYR A   1      64.789  66.208  70.027  0.00  0.00    +0.000 A 
ATOM     11  C   TYR A   1      63.081  64.682  70.967  0.00  0.00    +0.000 C 
ATOM     12  O   TYR A   1      62.756  64.088  70.496  0.00  0.00    +0.000 OA
ATOM     13  OXT TYR A   1      62.839  64.768  71.751  0.00  0.00    +0.000 OA
ENDROOT
TORSDOF 0
ENDMDL
MODEL 6
REMARK VINA RESULT:    -6.401     17.851     18.526
REMARK INTER + INTRA:          -6.401
REMARK INTER:                  -6.401
REMARK INTRA:                   0.000
REMARK UNBOUND:                 0.000
ROOT
REMARK  Name = tyrosine
REMARK                            x       y       z     vdW  Elec       q    Type
REMARK                         _______ _______ _______ _____ _____    ______ ____
ATOM      1  N   TYR A   1      64.219  78.922  58.651  0.00  0.00    +0.000 NA
ATOM      2  CA  TYR A   1      64.753  79.551  58.629  0.00  0.00    +0.000 C 
ATOM      3  CB  TYR A   1      65.506  79.465  58.956  0.00  0.00    +0.000 C 
ATOM      4  CG  TYR A   1      65.725  78.752  59.305  0.00  0.00    +0.000 A 
ATOM      5  CD1 TYR A   1      66.477  78.665  59.632  0.00  0.00    +0.000 A 
ATOM      6  CE1 TYR A   1      66.696  77.951  59.982  0.00  0.00    +0.000 A 
ATOM      7  CZ  TYR A   1      66.163  77.322  60.004  0.00  0.00    +0.000 A 
ATOM      8  OH  TYR A   1      66.382  76.607  60.354  0.00  0.00    +0.000 OA
ATOM      9  CE2 TYR A   1      65.410  77.408  59.677  0.00  0.00    +0.000 A 
ATOM     10  CD2 TYR A   1      65.191  78.122  59.328  0.00  0.00    +0.000 A 
ATOM     11  C   TYR A   1      64.534  80.266  58.280  0.00  0.00    +0.000 C 
ATOM     12  O   TYR A   1      63.781  80.351  57.953  0.00  0.00    +0.000 OA
ATOM     13  OXT TYR A   1      65.068  80.895  58.258  0.00  0.00    +0.000 OA
ENDROOT
TORSDOF 0
ENDMDL
MODEL 7
REMARK VINA RESULT:    -6.305      5.812      7.299
REMARK INTER + INTRA:          -6.305
REMARK INTER:                  -6.305
REMARK INTRA:                   0.000
REMARK UNBOUND:                 0.000
ROOT
REMARK  Name = tyrosine
REMARK                            x       y       z     vdW  Elec       q    Type
REMARK                         _______ _______ _______ _____ _____    ______ ____
ATOM      1  N   TYR A   1      59.857  62.832  71.347  0.00  0.00    +0.000 NA
ATOM      2  CA  TYR A   1      60.618  62.520  71.416  0.00  0.00    +0.000 C 
ATOM      3  CB  TYR A   1      61.200  62.938  71.827  0.00  0.00    +0.000 C 
ATOM      4  CG  TYR A   1      61.020  63.667  72.168  0.00  0.00    +0.000 A 
ATOM      5  CD1 TYR A   1      61.600  64.085  72.579  0.00  0.00    +0.000 A 
ATOM      6  CE1 TYR A   1      61.420  64.814  72.921  0.00  0.00    +0.000 A 
ATOM      7  CZ  TYR A   1      60.660  65.125  72.851  0.00  0.00    +0.000 A 
ATOM      8  OH  TYR A   1      60.479  65.855  73.193  0.00  0.00    +0.000 OA
ATOM      9  CE2 TYR A   1      60.078  64.707  72.441  0.00  0.00    +0.000 A 
ATOM     10  CD2 TYR A   1      60.258  63.978  72.099  0.00  0.00    +0.000 A 
ATOM     11  C   TYR A   1      60.798  61.791  71.074  0.00  0.00    +0.000 C 
ATOM     12  O   TYR A   1      60.217  61.374  70.664  0.00  0.00    +0.000 OA
ATOM     13  OXT TYR A   1      61.560  61.480  71.144  0.00  0.00    +0.000 OA
ENDROOT
TORSDOF 0
ENDMDL
MODEL 8
REMARK VINA RESULT:    -6.290     24.454     25.148
REMARK INTER + INTRA:          -6.290
REMARK INTER:                  -6.290
REMARK INTRA:                   0.000
REMARK UNBOUND:                 0.000
ROOT
REMARK  Name = tyrosine
REMARK                            x       y       z     vdW  Elec       q    Type
REMARK                         _______ _______ _______ _____ _____    ______ ____
ATOM      1  N   TYR A   1      70.526  80.493  50.792  0.00  0.00    +0.000 NA
ATOM      2  CA  TYR A   1      69.867  80.003  50.707  0.00  0.00    +0.000 C 
ATOM      3  CB  TYR A   1      69.896  79.357  50.195  0.00  0.00    +0.000 C 
ATOM      4  CG  TYR A   1      70.582  79.200  49.767  0.00  0.00    +0.000 A 
ATOM      5  CD1 TYR A   1      70.612  78.554  49.255  0.00  0.00    +0.000 A 
ATOM      6  CE1 TYR A   1      71.300  78.397  48.827  0.00  0.00    +0.000 A 
ATOM      7  CZ  TYR A   1      71.958  78.886  48.912  0.00  0.00    +0.000 A 
ATOM      8  OH  TYR A   1      72.646  78.729  48.483  0.00  0.00    +0.000 OA
ATOM      9  CE2 TYR A   1      71.930  79.532  49.424  0.00  0.00    +0.000 A 
ATOM     10  CD2 TYR A   1      71.242  79.689  49.852  0.00  0.00    +0.000 A 
ATOM     11  C   TYR A   1      69.179  80.160  51.135  0.00  0.00    +0.000 C 
ATOM     12  O   TYR A   1      69.151  80.807  51.647  0.00  0.00    +0.000 OA
ATOM     13  OXT TYR A   1      68.520  79.671  51.051  0.00  0.00    +0.000 OA
ENDROOT
TORSDOF 0
ENDMDL
MODEL 9
REMARK VINA RESULT:    -6.203      6.092      7.239
REMARK INTER + INTRA:          -6.203
REMARK INTER:                  -6.203
REMARK INTRA:                   0.000
REMARK UNBOUND:                 0.000
ROOT
REMARK  Name = tyrosine
REMARK                            x       y       z     vdW  Elec       q    Type
REMARK                         _______ _______ _______ _____ _____    ______ ____
ATOM      1  N   TYR A   1      62.575  65.140  71.205  0.00  0.00    +0.000 NA
ATOM      2  CA  TYR A   1      62.378  65.337  71.983  0.00  0.00    +0.000 C 
ATOM      3  CB  TYR A   1      62.035  64.772  72.477  0.00  0.00    +0.000 C 
ATOM      4  CG  TYR A   1      61.889  64.012  72.195  0.00  0.00    +0.000 A 
ATOM      5  CD1 TYR A   1      61.547  63.447  72.689  0.00  0.00    +0.000 A 
ATOM      6  CE1 TYR A   1      61.400  62.686  72.407  0.00  0.00    +0.000 A 
ATOM      7  CZ  TYR A   1      61.596  62.489  71.631  0.00  0.00    +0.000 A 
ATOM      8  OH  TYR A   1      61.450  61.727  71.348  0.00  0.00    +0.000 OA
ATOM      9  CE2 TYR A   1      61.939  63.053  71.136  0.00  0.00    +0.000 A 
ATOM     10  CD2 TYR A   1      62.085  63.815  71.418  0.00  0.00    +0.000 A 
ATOM     11  C   TYR A   1      62.525  66.098  72.265  0.00  0.00    +0.000 C 
ATOM     12  O   TYR A   1      62.867  66.663  71.770  0.00  0.00    +0.000 OA
ATOM     13  OXT TYR A   1      62.328  66.294  73.042  0.00  0.00    +0.000 OA
ENDROOT
TORSDOF 0
ENDMDL
