MODEL 1
REMARK VINA RESULT:   -17.110      0.000      0.000
REMARK INTER + INTRA:         -17.110
REMARK INTER:                 -17.110
REMARK INTRA:                   0.000
REMARK UNBOUND:                 0.000
ROOT
REMARK  Name = umeclidinium
REMARK                            x       y       z     vdW  Elec       q    Type
REMARK                         _______ _______ _______ _____ _____    ______ ____
ATOM      1  O   UNL     1      62.139  62.745  66.489  0.00  0.00    +0.000 OA
ATOM      2  C   UNL     1      61.385  62.464  66.310  0.00  0.00    +0.000 C 
ATOM      3  C   UNL     1      61.658  62.200  65.578  0.00  0.00    +0.000 A 
ATOM      4  C   UNL     1      61.141  61.824  65.057  0.00  0.00    +0.000 A 
ATOM      5  C   UNL     1      61.413  61.560  64.324  0.00  0.00    +0.000 A 
ATOM      6  C   UNL     1      62.203  61.671  64.113  0.00  0.00    +0.000 A 
ATOM      7  C   UNL     1      62.720  62.047  64.635  0.00  0.00    +0.000 A 
ATOM      8  C   UNL     1      62.448  62.311  65.367  0.00  0.00    +0.000 A 
ATOM      9  C   UNL     1      60.630  62.182  66.131  0.00  0.00    +0.000 A 
ATOM     10  C   UNL     1      60.017  62.271  66.676  0.00  0.00    +0.000 A 
ATOM     11  C   UNL     1      59.263  61.990  66.497  0.00  0.00    +0.000 A 
ATOM     12  C   UNL     1      59.121  61.620  65.772  0.00  0.00    +0.000 A 
ATOM     13  C   UNL     1      59.735  61.532  65.228  0.00  0.00    +0.000 A 
ATOM     14  C   UNL     1      60.490  61.813  65.407  0.00  0.00    +0.000 A 
ATOM     15  C   UNL     1      61.112  62.728  67.043  0.00  0.00    +0.000 C 
ATOM     16  C   UNL     1      61.630  63.105  67.565  0.00  0.00    +0.000 C 
ATOM     17  C   UNL     1      61.357  63.369  68.297  0.00  0.00    +0.000 C 
ATOM     18  N   UNL     1      60.567  63.257  68.507  0.00  0.00    +0.000 N 
ATOM     19  C   UNL     1      60.294  63.521  69.240  0.00  0.00    +0.000 C 
ATOM     20  C   UNL     1      60.812  63.898  69.762  0.00  0.00    +0.000 C 
ATOM     21  O   UNL     1      60.539  64.162  70.494  0.00  0.00    +0.000 OA
ATOM     22  C   UNL     1      61.056  64.538  71.015  0.00  0.00    +0.000 C 
ATOM     23  C   UNL     1      60.783  64.802  71.747  0.00  0.00    +0.000 A 
ATOM     24  C   UNL     1      61.300  65.178  72.269  0.00  0.00    +0.000 A 
ATOM     25  C   UNL     1      61.028  65.443  73.002  0.00  0.00    +0.000 A 
ATOM     26  C   UNL     1      60.238  65.331  73.212  0.00  0.00    +0.000 A 
ATOM     27  C   UNL     1      59.721  64.955  72.691  0.00  0.00    +0.000 A 
ATOM     28  C   UNL     1      59.994  64.691  71.959  0.00  0.00    +0.000 A 
ATOM     29  C   UNL     1      60.050  62.881  67.986  0.00  0.00    +0.000 C 
ATOM     30  C   UNL     1      60.323  62.617  67.254  0.00  0.00    +0.000 C 
ATOM     31  C   UNL     1      60.623  63.034  67.989  0.00  0.00    +0.000 C 
ATOM     32  C   UNL     1      60.805  62.858  67.501  0.00  0.00    +0.000 C 
ENDROOT
TORSDOF 0
ENDMDL
MODEL 2
REMARK VINA RESULT:   -16.754      1.049      6.150
REMARK INTER + INTRA:         -16.754
REMARK INTER:                 -16.754
REMARK INTRA:                   0.000
REMARK UNBOUND:                 0.000
ROOT
REMARK  Name = umeclidinium
REMARK                            x       y       z     vdW  Elec       q    Type
REMARK                         _______ _______ _______ _____ _____    ______ ____
ATOM      1  O   UNL     1      62.485  64.830  70.386  0.00  0.00    +0.000 OA
ATOM      2  C   UNL     1      61.856  64.462  70.772  0.00  0.00    +0.000 C 
ATOM      3  C   UNL     1      62.029  64.888  71.458  0.00  0.00    +0.000 A 
ATOM      4  C   UNL     1      61.571  64.782  72.135  0.00  0.00    +0.000 A 
ATOM      5  C   UNL     1      61.744  65.207  72.820  0.00  0.00    +0.000 A 
ATOM      6  C   UNL     1      62.375  65.739  72.829  0.00  0.00    +0.000 A 
ATOM      7  C   UNL     1      62.833  65.845  72.150  0.00  0.00    +0.000 A 
ATOM      8  C   UNL     1      62.661  65.419  71.465  0.00  0.00    +0.000 A 
ATOM      9  C   UNL     1      61.228  64.095  71.159  0.00  0.00    +0.000 A 
ATOM     10  C   UNL     1      60.764  63.542  70.759  0.00  0.00    +0.000 A 
ATOM     11  C   UNL     1      60.135  63.174  71.146  0.00  0.00    +0.000 A 
ATOM     12  C   UNL     1      59.970  63.359  71.933  0.00  0.00    +0.000 A 
ATOM     13  C   UNL     1      60.434  63.911  72.333  0.00  0.00    +0.000 A 
ATOM     14  C   UNL     1      61.063  64.279  71.946  0.00  0.00    +0.000 A 
ATOM     15  C   UNL     1      61.684  64.037  70.087  0.00  0.00    +0.000 C 
ATOM     16  C   UNL     1      62.142  64.143  69.409  0.00  0.00    +0.000 C 
ATOM     17  C   UNL     1      61.969  63.718  68.723  0.00  0.00    +0.000 C 
ATOM     18  N   UNL     1      61.338  63.186  68.716  0.00  0.00    +0.000 N 
ATOM     19  C   UNL     1      61.165  62.761  68.031  0.00  0.00    +0.000 C 
ATOM     20  C   UNL     1      61.624  62.867  67.352  0.00  0.00    +0.000 C 
ATOM     21  O   UNL     1      61.451  62.441  66.667  0.00  0.00    +0.000 OA
ATOM     22  C   UNL     1      61.909  62.547  65.990  0.00  0.00    +0.000 C 
ATOM     23  C   UNL     1      61.736  62.122  65.304  0.00  0.00    +0.000 A 
ATOM     24  C   UNL     1      62.194  62.228  64.626  0.00  0.00    +0.000 A 
ATOM     25  C   UNL     1      62.022  61.802  63.941  0.00  0.00    +0.000 A 
ATOM     26  C   UNL     1      61.390  61.271  63.934  0.00  0.00    +0.000 A 
ATOM     27  C   UNL     1      60.932  61.165  64.611  0.00  0.00    +0.000 A 
ATOM     28  C   UNL     1      61.105  61.590  65.296  0.00  0.00    +0.000 A 
ATOM     29  C   UNL     1      60.880  63.080  69.393  0.00  0.00    +0.000 C 
ATOM     30  C   UNL     1      61.053  63.506  70.079  0.00  0.00    +0.000 C 
ATOM     31  C   UNL     1      61.349  63.409  69.237  0.00  0.00    +0.000 C 
ATOM     32  C   UNL     1      61.464  63.692  69.694  0.00  0.00    +0.000 C 
ENDROOT
TORSDOF 0
ENDMDL
MODEL 3
REMARK VINA RESULT:   -15.235      2.083      6.667
REMARK INTER + INTRA:         -15.235
REMARK INTER:                 -15.235
REMARK INTRA:                   0.000
REMARK UNBOUND:                 0.000
ROOT
REMARK  Name = umeclidinium
REMARK                            x       y       z     vdW  Elec       q    Type
REMARK                         _______ _______ _______ _____ _____    ______ ____
ATOM      1  O   UNL     1      61.573  66.196  70.898  0.00  0.00    +0.000 OA
ATOM      2  C   UNL     1      62.390  66.110  70.963  0.00  0.00    +0.000 C 
ATOM      3  C   UNL     1      62.399  66.660  71.578  0.00  0.00    +0.000 A 
ATOM      4  C   UNL     1      63.112  66.860  71.941  0.00  0.00    +0.000 A 
ATOM      5  C   UNL     1      63.121  67.410  72.556  0.00  0.00    +0.000 A 
ATOM      6  C   UNL     1      62.417  67.760  72.807  0.00  0.00    +0.000 A 
ATOM      7  C   UNL     1      61.704  67.559  72.443  0.00  0.00    +0.000 A 
ATOM      8  C   UNL     1      61.695  67.009  71.828  0.00  0.00    +0.000 A 
ATOM      9  C   UNL     1      63.208  66.024  71.028  0.00  0.00    +0.000 A 
ATOM     10  C   UNL     1      63.609  65.504  70.527  0.00  0.00    +0.000 A 
ATOM     11  C   UNL     1      64.427  65.418  70.592  0.00  0.00    +0.000 A 
ATOM     12  C   UNL     1      64.844  65.852  71.158  0.00  0.00    +0.000 A 
ATOM     13  C   UNL     1      64.443  66.371  71.657  0.00  0.00    +0.000 A 
ATOM     14  C   UNL     1      63.625  66.457  71.592  0.00  0.00    +0.000 A 
ATOM     15  C   UNL     1      62.381  65.560  70.348  0.00  0.00    +0.000 C 
ATOM     16  C   UNL     1      61.668  65.359  69.983  0.00  0.00    +0.000 C 
ATOM     17  C   UNL     1      61.659  64.809  69.368  0.00  0.00    +0.000 C 
ATOM     18  N   UNL     1      62.363  64.460  69.118  0.00  0.00    +0.000 N 
ATOM     19  C   UNL     1      62.354  63.910  68.503  0.00  0.00    +0.000 C 
ATOM     20  C   UNL     1      61.641  63.710  68.139  0.00  0.00    +0.000 C 
ATOM     21  O   UNL     1      61.632  63.160  67.524  0.00  0.00    +0.000 OA
ATOM     22  C   UNL     1      60.920  62.960  67.160  0.00  0.00    +0.000 C 
ATOM     23  C   UNL     1      60.911  62.410  66.545  0.00  0.00    +0.000 A 
ATOM     24  C   UNL     1      60.197  62.209  66.181  0.00  0.00    +0.000 A 
ATOM     25  C   UNL     1      60.188  61.659  65.566  0.00  0.00    +0.000 A 
ATOM     26  C   UNL     1      60.893  61.310  65.315  0.00  0.00    +0.000 A 
ATOM     27  C   UNL     1      61.605  61.510  65.679  0.00  0.00    +0.000 A 
ATOM     28  C   UNL     1      61.614  62.060  66.294  0.00  0.00    +0.000 A 
ATOM     29  C   UNL     1      63.076  64.660  69.481  0.00  0.00    +0.000 C 
ATOM     30  C   UNL     1      63.085  65.210  70.096  0.00  0.00    +0.000 C 
ATOM     31  C   UNL     1      62.505  64.813  69.539  0.00  0.00    +0.000 C 
ATOM     32  C   UNL     1      62.511  65.179  69.948  0.00  0.00    +0.000 C 
ENDROOT
TORSDOF 0
ENDMDL
MODEL 4
REMARK VINA RESULT:   -14.944      4.214      7.104
REMARK INTER + INTRA:         -14.944
REMARK INTER:                 -14.944
REMARK INTRA:                   0.000
REMARK UNBOUND:                 0.000
ROOT
REMARK  Name = umeclidinium
REMARK                            x       y       z     vdW  Elec       q    Type
REMARK                         _______ _______ _______ _____ _____    ______ ____
ATOM      1  O   UNL     1      65.480  65.463  71.718  0.00  0.00    +0.000 OA
ATOM      2  C   UNL     1      65.621  66.083  71.192  0.00  0.00    +0.000 C 
ATOM      3  C   UNL     1      66.223  66.362  71.682  0.00  0.00    +0.000 A 
ATOM      4  C   UNL     1      66.646  67.038  71.471  0.00  0.00    +0.000 A 
ATOM      5  C   UNL     1      67.248  67.317  71.962  0.00  0.00    +0.000 A 
ATOM      6  C   UNL     1      67.427  66.920  72.662  0.00  0.00    +0.000 A 
ATOM      7  C   UNL     1      67.003  66.243  72.873  0.00  0.00    +0.000 A 
ATOM      8  C   UNL     1      66.401  65.964  72.383  0.00  0.00    +0.000 A 
ATOM      9  C   UNL     1      65.762  66.703  70.666  0.00  0.00    +0.000 A 
ATOM     10  C   UNL     1      65.311  66.770  69.978  0.00  0.00    +0.000 A 
ATOM     11  C   UNL     1      65.452  67.390  69.452  0.00  0.00    +0.000 A 
ATOM     12  C   UNL     1      66.045  67.942  69.613  0.00  0.00    +0.000 A 
ATOM     13  C   UNL     1      66.495  67.873  70.301  0.00  0.00    +0.000 A 
ATOM     14  C   UNL     1      66.354  67.254  70.827  0.00  0.00    +0.000 A 
ATOM     15  C   UNL     1      65.019  65.804  70.701  0.00  0.00    +0.000 C 
ATOM     16  C   UNL     1      64.595  65.127  70.912  0.00  0.00    +0.000 C 
ATOM     17  C   UNL     1      63.993  64.849  70.421  0.00  0.00    +0.000 C 
ATOM     18  N   UNL     1      63.815  65.246  69.721  0.00  0.00    +0.000 N 
ATOM     19  C   UNL     1      63.213  64.967  69.230  0.00  0.00    +0.000 C 
ATOM     20  C   UNL     1      62.789  64.291  69.441  0.00  0.00    +0.000 C 
ATOM     21  O   UNL     1      62.187  64.012  68.951  0.00  0.00    +0.000 OA
ATOM     22  C   UNL     1      61.764  63.336  69.161  0.00  0.00    +0.000 C 
ATOM     23  C   UNL     1      61.162  63.057  68.671  0.00  0.00    +0.000 A 
ATOM     24  C   UNL     1      60.738  62.380  68.881  0.00  0.00    +0.000 A 
ATOM     25  C   UNL     1      60.136  62.102  68.391  0.00  0.00    +0.000 A 
ATOM     26  C   UNL     1      59.958  62.499  67.690  0.00  0.00    +0.000 A 
ATOM     27  C   UNL     1      60.381  63.175  67.480  0.00  0.00    +0.000 A 
ATOM     28  C   UNL     1      60.983  63.454  67.970  0.00  0.00    +0.000 A 
ATOM     29  C   UNL     1      64.238  65.922  69.510  0.00  0.00    +0.000 C 
ATOM     30  C   UNL     1      64.840  66.201  70.001  0.00  0.00    +0.000 C 
ATOM     31  C   UNL     1      64.240  65.535  69.960  0.00  0.00    +0.000 C 
ATOM     32  C   UNL     1      64.641  65.721  70.287  0.00  0.00    +0.000 C 
ENDROOT
TORSDOF 0
ENDMDL
MODEL 5
REMARK VINA RESULT:   -14.405      0.920      2.040
REMARK INTER + INTRA:         -14.405
REMARK INTER:                 -14.405
REMARK INTRA:                   0.000
REMARK UNBOUND:                 0.000
ROOT
REMARK  Name = umeclidinium
REMARK                            x       y       z     vdW  Elec       q    Type
REMARK                         _______ _______ _______ _____ _____    ______ ____
ATOM      1  O   UNL     1      60.192  61.246  65.703  0.00  0.00    +0.000 OA
ATOM      2  C   UNL     1      60.886  61.575  65.402  0.00  0.00    +0.000 C 
ATOM      3  C   UNL     1      60.772  61.169  64.694  0.00  0.00    +0.000 A 
ATOM      4  C   UNL     1      61.316  61.251  64.080  0.00  0.00    +0.000 A 
ATOM      5  C   UNL     1      61.202  60.844  63.371  0.00  0.00    +0.000 A 
ATOM      6  C   UNL     1      60.544  60.356  63.276  0.00  0.00    +0.000 A 
ATOM      7  C   UNL     1      59.999  60.274  63.891  0.00  0.00    +0.000 A 
ATOM      8  C   UNL     1      60.113  60.680  64.600  0.00  0.00    +0.000 A 
ATOM      9  C   UNL     1      61.580  61.905  65.102  0.00  0.00    +0.000 A 
ATOM     10  C   UNL     1      62.026  62.421  65.566  0.00  0.00    +0.000 A 
ATOM     11  C   UNL     1      62.720  62.751  65.265  0.00  0.00    +0.000 A 
ATOM     12  C   UNL     1      62.968  62.563  64.501  0.00  0.00    +0.000 A 
ATOM     13  C   UNL     1      62.522  62.046  64.038  0.00  0.00    +0.000 A 
ATOM     14  C   UNL     1      61.828  61.717  64.338  0.00  0.00    +0.000 A 
ATOM     15  C   UNL     1      61.000  61.982  66.111  0.00  0.00    +0.000 C 
ATOM     16  C   UNL     1      60.455  61.900  66.726  0.00  0.00    +0.000 C 
ATOM     17  C   UNL     1      60.569  62.307  67.435  0.00  0.00    +0.000 C 
ATOM     18  N   UNL     1      61.228  62.795  67.529  0.00  0.00    +0.000 N 
ATOM     19  C   UNL     1      61.342  63.202  68.237  0.00  0.00    +0.000 C 
ATOM     20  C   UNL     1      60.797  63.120  68.853  0.00  0.00    +0.000 C 
ATOM     21  O   UNL     1      60.911  63.526  69.561  0.00  0.00    +0.000 OA
ATOM     22  C   UNL     1      60.367  63.444  70.175  0.00  0.00    +0.000 C 
ATOM     23  C   UNL     1      60.481  63.851  70.884  0.00  0.00    +0.000 A 
ATOM     24  C   UNL     1      59.937  63.769  71.499  0.00  0.00    +0.000 A 
ATOM     25  C   UNL     1      60.051  64.176  72.208  0.00  0.00    +0.000 A 
ATOM     26  C   UNL     1      60.709  64.664  72.302  0.00  0.00    +0.000 A 
ATOM     27  C   UNL     1      61.253  64.746  71.688  0.00  0.00    +0.000 A 
ATOM     28  C   UNL     1      61.139  64.339  70.979  0.00  0.00    +0.000 A 
ATOM     29  C   UNL     1      61.772  62.877  66.915  0.00  0.00    +0.000 C 
ATOM     30  C   UNL     1      61.658  62.470  66.206  0.00  0.00    +0.000 C 
ATOM     31  C   UNL     1      61.267  62.579  67.006  0.00  0.00    +0.000 C 
ATOM     32  C   UNL     1      61.191  62.308  66.534  0.00  0.00    +0.000 C 
ENDROOT
TORSDOF 0
ENDMDL
