MODEL 1
REMARK VINA RESULT:   -12.953      0.000      0.000
REMARK INTER + INTRA:         -12.953
REMARK INTER:                 -12.953
REMARK INTRA:                   0.000
REMARK UNBOUND:                 0.000
ROOT
REMARK  Name = urapidil
REMARK                            x       y       z     vdW  Elec       q    Type
REMARK                         _______ _______ _______ _____ _____    ______ ____
ATOM      1  C   UNL     1      63.542  65.361  71.048  0.00  0.00    +0.000 C 
ATOM      2  O   UNL     1      62.823  64.971  70.940  0.00  0.00    +0.000 OA
ATOM      3  C   UNL     1      62.267  64.955  71.549  0.00  0.00    +0.000 A 
ATOM      4  C   UNL     1      61.547  64.565  71.441  0.00  0.00    +0.000 A 
ATOM      5  C   UNL     1      60.992  64.548  72.051  0.00  0.00    +0.000 A 
ATOM      6  C   UNL     1      61.155  64.921  72.768  0.00  0.00    +0.000 A 
ATOM      7  C   UNL     1      61.875  65.311  72.876  0.00  0.00    +0.000 A 
ATOM      8  C   UNL     1      62.430  65.327  72.267  0.00  0.00    +0.000 A 
ATOM      9  N   UNL     1      61.384  64.192  70.724  0.00  0.00    +0.000 N 
ATOM     10  C   UNL     1      61.940  64.209  70.114  0.00  0.00    +0.000 C 
ATOM     11  C   UNL     1      61.777  63.836  69.396  0.00  0.00    +0.000 C 
ATOM     12  N   UNL     1      61.058  63.447  69.288  0.00  0.00    +0.000 NA
ATOM     13  C   UNL     1      60.894  63.073  68.570  0.00  0.00    +0.000 C 
ATOM     14  C   UNL     1      61.450  63.091  67.961  0.00  0.00    +0.000 C 
ATOM     15  C   UNL     1      61.286  62.718  67.244  0.00  0.00    +0.000 C 
ATOM     16  N   UNL     1      61.843  62.735  66.634  0.00  0.00    +0.000 NA
ATOM     17  C   UNL     1      61.679  62.362  65.917  0.00  0.00    +0.000 A 
ATOM     18  C   UNL     1      62.235  62.379  65.307  0.00  0.00    +0.000 A 
ATOM     19  C   UNL     1      62.071  62.006  64.590  0.00  0.00    +0.000 A 
ATOM     20  O   UNL     1      62.628  62.023  63.980  0.00  0.00    +0.000 OA
ATOM     21  N   UNL     1      61.353  61.616  64.482  0.00  0.00    +0.000 N 
ATOM     22  C   UNL     1      61.190  61.243  63.763  0.00  0.00    +0.000 C 
ATOM     23  C   UNL     1      60.797  61.599  65.091  0.00  0.00    +0.000 A 
ATOM     24  O   UNL     1      60.078  61.210  64.982  0.00  0.00    +0.000 OA
ATOM     25  N   UNL     1      60.961  61.972  65.809  0.00  0.00    +0.000 N 
ATOM     26  C   UNL     1      60.405  61.955  66.418  0.00  0.00    +0.000 C 
ATOM     27  C   UNL     1      60.501  63.430  69.898  0.00  0.00    +0.000 C 
ATOM     28  C   UNL     1      60.665  63.803  70.615  0.00  0.00    +0.000 C 
ENDROOT
TORSDOF 0
ENDMDL
MODEL 2
REMARK VINA RESULT:   -12.574      1.834      6.323
REMARK INTER + INTRA:         -12.574
REMARK INTER:                 -12.574
REMARK INTRA:                   0.000
REMARK UNBOUND:                 0.000
ROOT
REMARK  Name = urapidil
REMARK                            x       y       z     vdW  Elec       q    Type
REMARK                         _______ _______ _______ _____ _____    ______ ____
ATOM      1  C   UNL     1      61.991  62.372  65.537  0.00  0.00    +0.000 C 
ATOM      2  O   UNL     1      61.555  62.625  66.190  0.00  0.00    +0.000 OA
ATOM      3  C   UNL     1      60.762  62.410  66.264  0.00  0.00    +0.000 A 
ATOM      4  C   UNL     1      60.325  62.664  66.918  0.00  0.00    +0.000 A 
ATOM      5  C   UNL     1      59.532  62.448  66.991  0.00  0.00    +0.000 A 
ATOM      6  C   UNL     1      59.175  61.981  66.413  0.00  0.00    +0.000 A 
ATOM      7  C   UNL     1      59.612  61.728  65.760  0.00  0.00    +0.000 A 
ATOM      8  C   UNL     1      60.405  61.943  65.686  0.00  0.00    +0.000 A 
ATOM      9  N   UNL     1      60.682  63.131  67.496  0.00  0.00    +0.000 N 
ATOM     10  C   UNL     1      61.474  63.346  67.422  0.00  0.00    +0.000 C 
ATOM     11  C   UNL     1      61.831  63.813  68.000  0.00  0.00    +0.000 C 
ATOM     12  N   UNL     1      61.395  64.066  68.653  0.00  0.00    +0.000 NA
ATOM     13  C   UNL     1      61.752  64.534  69.232  0.00  0.00    +0.000 C 
ATOM     14  C   UNL     1      62.544  64.748  69.158  0.00  0.00    +0.000 C 
ATOM     15  C   UNL     1      62.900  65.216  69.737  0.00  0.00    +0.000 C 
ATOM     16  N   UNL     1      63.694  65.431  69.662  0.00  0.00    +0.000 NA
ATOM     17  C   UNL     1      64.050  65.898  70.241  0.00  0.00    +0.000 A 
ATOM     18  C   UNL     1      64.844  66.113  70.167  0.00  0.00    +0.000 A 
ATOM     19  C   UNL     1      65.200  66.581  70.745  0.00  0.00    +0.000 A 
ATOM     20  O   UNL     1      65.994  66.796  70.671  0.00  0.00    +0.000 OA
ATOM     21  N   UNL     1      64.764  66.833  71.397  0.00  0.00    +0.000 N 
ATOM     22  C   UNL     1      65.121  67.301  71.977  0.00  0.00    +0.000 C 
ATOM     23  C   UNL     1      63.971  66.619  71.472  0.00  0.00    +0.000 A 
ATOM     24  O   UNL     1      63.534  66.872  72.125  0.00  0.00    +0.000 OA
ATOM     25  N   UNL     1      63.614  66.151  70.893  0.00  0.00    +0.000 N 
ATOM     26  C   UNL     1      62.821  65.936  70.968  0.00  0.00    +0.000 C 
ATOM     27  C   UNL     1      60.601  63.851  68.728  0.00  0.00    +0.000 C 
ATOM     28  C   UNL     1      60.245  63.384  68.149  0.00  0.00    +0.000 C 
ENDROOT
TORSDOF 0
ENDMDL
MODEL 3
REMARK VINA RESULT:   -12.358      1.101      6.414
REMARK INTER + INTRA:         -12.358
REMARK INTER:                 -12.358
REMARK INTRA:                   0.000
REMARK UNBOUND:                 0.000
ROOT
REMARK  Name = urapidil
REMARK                            x       y       z     vdW  Elec       q    Type
REMARK                         _______ _______ _______ _____ _____    ______ ____
ATOM      1  C   UNL     1      62.744  62.365  65.051  0.00  0.00    +0.000 C 
ATOM      2  O   UNL     1      62.101  62.361  65.568  0.00  0.00    +0.000 OA
ATOM      3  C   UNL     1      61.403  61.978  65.354  0.00  0.00    +0.000 A 
ATOM      4  C   UNL     1      60.759  61.974  65.872  0.00  0.00    +0.000 A 
ATOM      5  C   UNL     1      60.061  61.590  65.657  0.00  0.00    +0.000 A 
ATOM      6  C   UNL     1      60.005  61.211  64.928  0.00  0.00    +0.000 A 
ATOM      7  C   UNL     1      60.649  61.215  64.410  0.00  0.00    +0.000 A 
ATOM      8  C   UNL     1      61.347  61.598  64.624  0.00  0.00    +0.000 A 
ATOM      9  N   UNL     1      60.815  62.353  66.601  0.00  0.00    +0.000 N 
ATOM     10  C   UNL     1      61.513  62.737  66.815  0.00  0.00    +0.000 C 
ATOM     11  C   UNL     1      61.569  63.116  67.545  0.00  0.00    +0.000 C 
ATOM     12  N   UNL     1      60.926  63.113  68.062  0.00  0.00    +0.000 NA
ATOM     13  C   UNL     1      60.981  63.493  68.793  0.00  0.00    +0.000 C 
ATOM     14  C   UNL     1      61.680  63.876  69.006  0.00  0.00    +0.000 C 
ATOM     15  C   UNL     1      61.734  64.255  69.737  0.00  0.00    +0.000 C 
ATOM     16  N   UNL     1      62.434  64.639  69.950  0.00  0.00    +0.000 NA
ATOM     17  C   UNL     1      62.488  65.018  70.681  0.00  0.00    +0.000 A 
ATOM     18  C   UNL     1      63.188  65.402  70.894  0.00  0.00    +0.000 A 
ATOM     19  C   UNL     1      63.242  65.781  71.625  0.00  0.00    +0.000 A 
ATOM     20  O   UNL     1      63.942  66.165  71.838  0.00  0.00    +0.000 OA
ATOM     21  N   UNL     1      62.600  65.777  72.141  0.00  0.00    +0.000 N 
ATOM     22  C   UNL     1      62.655  66.157  72.872  0.00  0.00    +0.000 C 
ATOM     23  C   UNL     1      61.901  65.394  71.928  0.00  0.00    +0.000 A 
ATOM     24  O   UNL     1      61.258  65.390  72.444  0.00  0.00    +0.000 OA
ATOM     25  N   UNL     1      61.846  65.014  71.197  0.00  0.00    +0.000 N 
ATOM     26  C   UNL     1      61.147  64.631  70.984  0.00  0.00    +0.000 C 
ATOM     27  C   UNL     1      60.226  62.729  67.848  0.00  0.00    +0.000 C 
ATOM     28  C   UNL     1      60.172  62.350  67.118  0.00  0.00    +0.000 C 
ENDROOT
TORSDOF 0
ENDMDL
MODEL 4
REMARK VINA RESULT:   -11.637      1.663      2.626
REMARK INTER + INTRA:         -11.637
REMARK INTER:                 -11.637
REMARK INTRA:                   0.000
REMARK UNBOUND:                 0.000
ROOT
REMARK  Name = urapidil
REMARK                            x       y       z     vdW  Elec       q    Type
REMARK                         _______ _______ _______ _____ _____    ______ ____
ATOM      1  C   UNL     1      60.177  67.022  72.368  0.00  0.00    +0.000 C 
ATOM      2  O   UNL     1      60.856  66.798  71.957  0.00  0.00    +0.000 OA
ATOM      3  C   UNL     1      61.591  67.095  72.183  0.00  0.00    +0.000 A 
ATOM      4  C   UNL     1      62.272  66.871  71.772  0.00  0.00    +0.000 A 
ATOM      5  C   UNL     1      63.007  67.169  71.999  0.00  0.00    +0.000 A 
ATOM      6  C   UNL     1      63.063  67.690  72.635  0.00  0.00    +0.000 A 
ATOM      7  C   UNL     1      62.383  67.914  73.046  0.00  0.00    +0.000 A 
ATOM      8  C   UNL     1      61.648  67.617  72.820  0.00  0.00    +0.000 A 
ATOM      9  N   UNL     1      62.215  66.350  71.136  0.00  0.00    +0.000 N 
ATOM     10  C   UNL     1      61.480  66.052  70.910  0.00  0.00    +0.000 C 
ATOM     11  C   UNL     1      61.424  65.531  70.273  0.00  0.00    +0.000 C 
ATOM     12  N   UNL     1      62.103  65.306  69.863  0.00  0.00    +0.000 NA
ATOM     13  C   UNL     1      62.047  64.784  69.225  0.00  0.00    +0.000 C 
ATOM     14  C   UNL     1      61.311  64.487  69.000  0.00  0.00    +0.000 C 
ATOM     15  C   UNL     1      61.256  63.966  68.363  0.00  0.00    +0.000 C 
ATOM     16  N   UNL     1      60.520  63.668  68.137  0.00  0.00    +0.000 NA
ATOM     17  C   UNL     1      60.464  63.147  67.500  0.00  0.00    +0.000 A 
ATOM     18  C   UNL     1      59.728  62.849  67.274  0.00  0.00    +0.000 A 
ATOM     19  C   UNL     1      59.673  62.328  66.638  0.00  0.00    +0.000 A 
ATOM     20  O   UNL     1      58.936  62.030  66.411  0.00  0.00    +0.000 OA
ATOM     21  N   UNL     1      60.351  62.104  66.227  0.00  0.00    +0.000 N 
ATOM     22  C   UNL     1      60.295  61.582  65.590  0.00  0.00    +0.000 C 
ATOM     23  C   UNL     1      61.087  62.401  66.453  0.00  0.00    +0.000 A 
ATOM     24  O   UNL     1      61.767  62.176  66.042  0.00  0.00    +0.000 OA
ATOM     25  N   UNL     1      61.143  62.923  67.090  0.00  0.00    +0.000 N 
ATOM     26  C   UNL     1      61.879  63.220  67.316  0.00  0.00    +0.000 C 
ATOM     27  C   UNL     1      62.839  65.604  70.089  0.00  0.00    +0.000 C 
ATOM     28  C   UNL     1      62.895  66.125  70.725  0.00  0.00    +0.000 C 
ENDROOT
TORSDOF 0
ENDMDL
MODEL 5
REMARK VINA RESULT:   -10.287      5.936      6.867
REMARK INTER + INTRA:         -10.287
REMARK INTER:                 -10.287
REMARK INTRA:                   0.000
REMARK UNBOUND:                 0.000
ROOT
REMARK  Name = urapidil
REMARK                            x       y       z     vdW  Elec       q    Type
REMARK                         _______ _______ _______ _____ _____    ______ ____
ATOM      1  C   UNL     1      59.453  67.630  70.597  0.00  0.00    +0.000 C 
ATOM      2  O   UNL     1      59.908  67.326  71.215  0.00  0.00    +0.000 OA
ATOM      3  C   UNL     1      59.539  67.014  71.883  0.00  0.00    +0.000 A 
ATOM      4  C   UNL     1      59.994  66.710  72.501  0.00  0.00    +0.000 A 
ATOM      5  C   UNL     1      59.625  66.398  73.170  0.00  0.00    +0.000 A 
ATOM      6  C   UNL     1      58.802  66.389  73.221  0.00  0.00    +0.000 A 
ATOM      7  C   UNL     1      58.347  66.693  72.602  0.00  0.00    +0.000 A 
ATOM      8  C   UNL     1      58.716  67.005  71.934  0.00  0.00    +0.000 A 
ATOM      9  N   UNL     1      60.817  66.719  72.450  0.00  0.00    +0.000 N 
ATOM     10  C   UNL     1      61.186  67.031  71.782  0.00  0.00    +0.000 C 
ATOM     11  C   UNL     1      62.009  67.040  71.731  0.00  0.00    +0.000 C 
ATOM     12  N   UNL     1      62.464  66.736  72.348  0.00  0.00    +0.000 NA
ATOM     13  C   UNL     1      63.288  66.745  72.297  0.00  0.00    +0.000 C 
ATOM     14  C   UNL     1      63.656  67.057  71.629  0.00  0.00    +0.000 C 
ATOM     15  C   UNL     1      64.479  67.066  71.578  0.00  0.00    +0.000 C 
ATOM     16  N   UNL     1      64.848  67.378  70.909  0.00  0.00    +0.000 NA
ATOM     17  C   UNL     1      65.671  67.387  70.859  0.00  0.00    +0.000 A 
ATOM     18  C   UNL     1      66.040  67.700  70.190  0.00  0.00    +0.000 A 
ATOM     19  C   UNL     1      66.863  67.708  70.139  0.00  0.00    +0.000 A 
ATOM     20  O   UNL     1      67.232  68.021  69.470  0.00  0.00    +0.000 OA
ATOM     21  N   UNL     1      67.318  67.404  70.756  0.00  0.00    +0.000 N 
ATOM     22  C   UNL     1      68.142  67.413  70.705  0.00  0.00    +0.000 C 
ATOM     23  C   UNL     1      66.950  67.092  71.425  0.00  0.00    +0.000 A 
ATOM     24  O   UNL     1      67.404  66.788  72.043  0.00  0.00    +0.000 OA
ATOM     25  N   UNL     1      66.125  67.083  71.476  0.00  0.00    +0.000 N 
ATOM     26  C   UNL     1      65.757  66.771  72.144  0.00  0.00    +0.000 C 
ATOM     27  C   UNL     1      62.095  66.423  73.018  0.00  0.00    +0.000 C 
ATOM     28  C   UNL     1      61.272  66.415  73.068  0.00  0.00    +0.000 C 
ENDROOT
TORSDOF 0
ENDMDL
MODEL 6
REMARK VINA RESULT:   -10.190     13.547     14.823
REMARK INTER + INTRA:         -10.190
REMARK INTER:                 -10.190
REMARK INTRA:                   0.000
REMARK UNBOUND:                 0.000
ROOT
REMARK  Name = urapidil
REMARK                            x       y       z     vdW  Elec       q    Type
REMARK                         _______ _______ _______ _____ _____    ______ ____
ATOM      1  C   UNL     1      63.082  68.023  56.537  0.00  0.00    +0.000 C 
ATOM      2  O   UNL     1      62.731  67.846  55.812  0.00  0.00    +0.000 OA
ATOM      3  C   UNL     1      62.344  68.436  55.386  0.00  0.00    +0.000 A 
ATOM      4  C   UNL     1      61.993  68.259  54.660  0.00  0.00    +0.000 A 
ATOM      5  C   UNL     1      61.605  68.850  54.234  0.00  0.00    +0.000 A 
ATOM      6  C   UNL     1      61.567  69.617  54.534  0.00  0.00    +0.000 A 
ATOM      7  C   UNL     1      61.918  69.795  55.260  0.00  0.00    +0.000 A 
ATOM      8  C   UNL     1      62.306  69.205  55.685  0.00  0.00    +0.000 A 
ATOM      9  N   UNL     1      62.030  67.492  54.361  0.00  0.00    +0.000 N 
ATOM     10  C   UNL     1      62.418  66.902  54.786  0.00  0.00    +0.000 C 
ATOM     11  C   UNL     1      62.456  66.133  54.487  0.00  0.00    +0.000 C 
ATOM     12  N   UNL     1      62.105  65.956  53.761  0.00  0.00    +0.000 NA
ATOM     13  C   UNL     1      62.142  65.188  53.461  0.00  0.00    +0.000 C 
ATOM     14  C   UNL     1      62.531  64.598  53.888  0.00  0.00    +0.000 C 
ATOM     15  C   UNL     1      62.568  63.830  53.588  0.00  0.00    +0.000 C 
ATOM     16  N   UNL     1      62.956  63.240  54.014  0.00  0.00    +0.000 NA
ATOM     17  C   UNL     1      62.993  62.472  53.714  0.00  0.00    +0.000 A 
ATOM     18  C   UNL     1      63.381  61.881  54.140  0.00  0.00    +0.000 A 
ATOM     19  C   UNL     1      63.419  61.114  53.840  0.00  0.00    +0.000 A 
ATOM     20  O   UNL     1      63.807  60.523  54.266  0.00  0.00    +0.000 OA
ATOM     21  N   UNL     1      63.068  60.937  53.115  0.00  0.00    +0.000 N 
ATOM     22  C   UNL     1      63.106  60.168  52.815  0.00  0.00    +0.000 C 
ATOM     23  C   UNL     1      62.680  61.527  52.689  0.00  0.00    +0.000 A 
ATOM     24  O   UNL     1      62.330  61.350  51.964  0.00  0.00    +0.000 OA
ATOM     25  N   UNL     1      62.643  62.295  52.989  0.00  0.00    +0.000 N 
ATOM     26  C   UNL     1      62.255  62.885  52.563  0.00  0.00    +0.000 C 
ATOM     27  C   UNL     1      61.717  66.547  53.335  0.00  0.00    +0.000 C 
ATOM     28  C   UNL     1      61.680  67.315  53.635  0.00  0.00    +0.000 C 
ENDROOT
TORSDOF 0
ENDMDL
MODEL 7
REMARK VINA RESULT:   -10.006      3.343      5.102
REMARK INTER + INTRA:         -10.006
REMARK INTER:                 -10.006
REMARK INTRA:                   0.000
REMARK UNBOUND:                 0.000
ROOT
REMARK  Name = urapidil
REMARK                            x       y       z     vdW  Elec       q    Type
REMARK                         _______ _______ _______ _____ _____    ______ ____
ATOM      1  C   UNL     1      66.575  66.487  72.335  0.00  0.00    +0.000 C 
ATOM      2  O   UNL     1      66.157  66.499  71.624  0.00  0.00    +0.000 OA
ATOM      3  C   UNL     1      66.365  67.034  71.033  0.00  0.00    +0.000 A 
ATOM      4  C   UNL     1      65.946  67.046  70.320  0.00  0.00    +0.000 A 
ATOM      5  C   UNL     1      66.155  67.582  69.729  0.00  0.00    +0.000 A 
ATOM      6  C   UNL     1      66.780  68.106  69.848  0.00  0.00    +0.000 A 
ATOM      7  C   UNL     1      67.199  68.094  70.560  0.00  0.00    +0.000 A 
ATOM      8  C   UNL     1      66.991  67.559  71.151  0.00  0.00    +0.000 A 
ATOM      9  N   UNL     1      65.321  66.523  70.201  0.00  0.00    +0.000 N 
ATOM     10  C   UNL     1      65.113  65.987  70.792  0.00  0.00    +0.000 C 
ATOM     11  C   UNL     1      64.487  65.463  70.674  0.00  0.00    +0.000 C 
ATOM     12  N   UNL     1      64.069  65.474  69.962  0.00  0.00    +0.000 NA
ATOM     13  C   UNL     1      63.443  64.950  69.843  0.00  0.00    +0.000 C 
ATOM     14  C   UNL     1      63.235  64.415  70.435  0.00  0.00    +0.000 C 
ATOM     15  C   UNL     1      62.609  63.891  70.315  0.00  0.00    +0.000 C 
ATOM     16  N   UNL     1      62.401  63.355  70.907  0.00  0.00    +0.000 NA
ATOM     17  C   UNL     1      61.775  62.831  70.787  0.00  0.00    +0.000 A 
ATOM     18  C   UNL     1      61.567  62.295  71.379  0.00  0.00    +0.000 A 
ATOM     19  C   UNL     1      60.941  61.771  71.259  0.00  0.00    +0.000 A 
ATOM     20  O   UNL     1      60.733  61.235  71.852  0.00  0.00    +0.000 OA
ATOM     21  N   UNL     1      60.524  61.783  70.549  0.00  0.00    +0.000 N 
ATOM     22  C   UNL     1      59.898  61.258  70.429  0.00  0.00    +0.000 C 
ATOM     23  C   UNL     1      60.732  62.318  69.957  0.00  0.00    +0.000 A 
ATOM     24  O   UNL     1      60.314  62.330  69.246  0.00  0.00    +0.000 OA
ATOM     25  N   UNL     1      61.358  62.843  70.077  0.00  0.00    +0.000 N 
ATOM     26  C   UNL     1      61.566  63.378  69.485  0.00  0.00    +0.000 C 
ATOM     27  C   UNL     1      64.277  66.011  69.370  0.00  0.00    +0.000 C 
ATOM     28  C   UNL     1      64.903  66.534  69.490  0.00  0.00    +0.000 C 
ENDROOT
TORSDOF 0
ENDMDL
