MODEL 1
REMARK VINA RESULT:   -12.011      0.000      0.000
REMARK INTER + INTRA:         -12.011
REMARK INTER:                 -12.011
REMARK INTRA:                   0.000
REMARK UNBOUND:                 0.000
ROOT
REMARK  Name = valethamate
REMARK                            x       y       z     vdW  Elec       q    Type
REMARK                         _______ _______ _______ _____ _____    ______ ____
ATOM      1  C   UNL     1      58.965  62.003  66.679  0.00  0.00    +0.000 C 
ATOM      2  C   UNL     1      59.764  62.206  66.637  0.00  0.00    +0.000 C 
ATOM      3  C   UNL     1      60.206  62.009  65.968  0.00  0.00    +0.000 C 
ATOM      4  C   UNL     1      59.848  61.608  65.342  0.00  0.00    +0.000 C 
ATOM      5  C   UNL     1      61.004  62.213  65.927  0.00  0.00    +0.000 C 
ATOM      6  C   UNL     1      61.361  62.614  66.553  0.00  0.00    +0.000 C 
ATOM      7  O   UNL     1      62.159  62.817  66.512  0.00  0.00    +0.000 OA
ATOM      8  O   UNL     1      60.919  62.811  67.221  0.00  0.00    +0.000 OA
ATOM      9  C   UNL     1      61.275  63.212  67.848  0.00  0.00    +0.000 C 
ATOM     10  C   UNL     1      60.834  63.409  68.516  0.00  0.00    +0.000 C 
ATOM     11  N   UNL     1      61.191  63.811  69.143  0.00  0.00    +0.000 N 
ATOM     12  C   UNL     1      60.475  63.807  69.553  0.00  0.00    +0.000 C 
ATOM     13  C   UNL     1      61.548  64.212  69.769  0.00  0.00    +0.000 C 
ATOM     14  C   UNL     1      61.106  64.409  70.437  0.00  0.00    +0.000 C 
ATOM     15  C   UNL     1      61.907  63.814  68.732  0.00  0.00    +0.000 C 
ATOM     16  C   UNL     1      62.574  64.163  69.070  0.00  0.00    +0.000 C 
ATOM     17  C   UNL     1      61.446  62.015  65.258  0.00  0.00    +0.000 A 
ATOM     18  C   UNL     1      61.089  61.614  64.632  0.00  0.00    +0.000 A 
ATOM     19  C   UNL     1      61.531  61.417  63.964  0.00  0.00    +0.000 A 
ATOM     20  C   UNL     1      62.330  61.620  63.922  0.00  0.00    +0.000 A 
ATOM     21  C   UNL     1      62.686  62.021  64.548  0.00  0.00    +0.000 A 
ATOM     22  C   UNL     1      62.244  62.219  65.217  0.00  0.00    +0.000 A 
ENDROOT
TORSDOF 0
ENDMDL
MODEL 2
REMARK VINA RESULT:   -10.871      3.812      5.413
REMARK INTER + INTRA:         -10.871
REMARK INTER:                 -10.871
REMARK INTRA:                   0.000
REMARK UNBOUND:                 0.000
ROOT
REMARK  Name = valethamate
REMARK                            x       y       z     vdW  Elec       q    Type
REMARK                         _______ _______ _______ _____ _____    ______ ____
ATOM      1  C   UNL     1      61.658  64.647  73.149  0.00  0.00    +0.000 C 
ATOM      2  C   UNL     1      61.864  64.406  72.387  0.00  0.00    +0.000 C 
ATOM      3  C   UNL     1      61.447  63.796  72.020  0.00  0.00    +0.000 C 
ATOM      4  C   UNL     1      60.824  63.427  72.415  0.00  0.00    +0.000 C 
ATOM      5  C   UNL     1      61.654  63.555  71.258  0.00  0.00    +0.000 C 
ATOM      6  C   UNL     1      62.277  63.924  70.864  0.00  0.00    +0.000 C 
ATOM      7  O   UNL     1      62.484  63.684  70.103  0.00  0.00    +0.000 OA
ATOM      8  O   UNL     1      62.694  64.534  71.231  0.00  0.00    +0.000 OA
ATOM      9  C   UNL     1      63.318  64.904  70.837  0.00  0.00    +0.000 C 
ATOM     10  C   UNL     1      63.734  65.513  71.203  0.00  0.00    +0.000 C 
ATOM     11  N   UNL     1      64.358  65.883  70.809  0.00  0.00    +0.000 N 
ATOM     12  C   UNL     1      64.479  66.374  71.461  0.00  0.00    +0.000 C 
ATOM     13  C   UNL     1      64.981  66.251  70.414  0.00  0.00    +0.000 C 
ATOM     14  C   UNL     1      65.398  66.861  70.781  0.00  0.00    +0.000 C 
ATOM     15  C   UNL     1      64.236  65.391  70.157  0.00  0.00    +0.000 C 
ATOM     16  C   UNL     1      64.715  65.465  69.490  0.00  0.00    +0.000 C 
ATOM     17  C   UNL     1      61.237  62.945  70.891  0.00  0.00    +0.000 A 
ATOM     18  C   UNL     1      60.614  62.576  71.286  0.00  0.00    +0.000 A 
ATOM     19  C   UNL     1      60.197  61.966  70.919  0.00  0.00    +0.000 A 
ATOM     20  C   UNL     1      60.403  61.725  70.157  0.00  0.00    +0.000 A 
ATOM     21  C   UNL     1      61.027  62.094  69.763  0.00  0.00    +0.000 A 
ATOM     22  C   UNL     1      61.444  62.704  70.130  0.00  0.00    +0.000 A 
ENDROOT
TORSDOF 0
ENDMDL
MODEL 3
REMARK VINA RESULT:   -10.721      3.211      4.923
REMARK INTER + INTRA:         -10.721
REMARK INTER:                 -10.721
REMARK INTRA:                   0.000
REMARK UNBOUND:                 0.000
ROOT
REMARK  Name = valethamate
REMARK                            x       y       z     vdW  Elec       q    Type
REMARK                         _______ _______ _______ _____ _____    ______ ____
ATOM      1  C   UNL     1      61.617  62.752  72.860  0.00  0.00    +0.000 C 
ATOM      2  C   UNL     1      61.424  63.182  72.182  0.00  0.00    +0.000 C 
ATOM      3  C   UNL     1      61.192  62.787  71.495  0.00  0.00    +0.000 C 
ATOM      4  C   UNL     1      61.153  61.963  71.487  0.00  0.00    +0.000 C 
ATOM      5  C   UNL     1      60.999  63.217  70.818  0.00  0.00    +0.000 C 
ATOM      6  C   UNL     1      61.038  64.041  70.827  0.00  0.00    +0.000 C 
ATOM      7  O   UNL     1      60.845  64.470  70.150  0.00  0.00    +0.000 OA
ATOM      8  O   UNL     1      61.270  64.435  71.513  0.00  0.00    +0.000 OA
ATOM      9  C   UNL     1      61.309  65.259  71.523  0.00  0.00    +0.000 C 
ATOM     10  C   UNL     1      61.540  65.653  72.208  0.00  0.00    +0.000 C 
ATOM     11  N   UNL     1      61.579  66.478  72.217  0.00  0.00    +0.000 N 
ATOM     12  C   UNL     1      61.825  66.458  73.006  0.00  0.00    +0.000 C 
ATOM     13  C   UNL     1      61.618  67.301  72.226  0.00  0.00    +0.000 C 
ATOM     14  C   UNL     1      61.850  67.696  72.912  0.00  0.00    +0.000 C 
ATOM     15  C   UNL     1      61.334  66.497  71.430  0.00  0.00    +0.000 C 
ATOM     16  C   UNL     1      61.245  67.221  71.044  0.00  0.00    +0.000 C 
ATOM     17  C   UNL     1      60.767  62.822  70.131  0.00  0.00    +0.000 A 
ATOM     18  C   UNL     1      60.728  61.998  70.123  0.00  0.00    +0.000 A 
ATOM     19  C   UNL     1      60.496  61.603  69.436  0.00  0.00    +0.000 A 
ATOM     20  C   UNL     1      60.303  62.033  68.758  0.00  0.00    +0.000 A 
ATOM     21  C   UNL     1      60.342  62.857  68.768  0.00  0.00    +0.000 A 
ATOM     22  C   UNL     1      60.574  63.251  69.454  0.00  0.00    +0.000 A 
ENDROOT
TORSDOF 0
ENDMDL
MODEL 4
REMARK VINA RESULT:   -10.666      2.150      3.722
REMARK INTER + INTRA:         -10.666
REMARK INTER:                 -10.666
REMARK INTRA:                   0.000
REMARK UNBOUND:                 0.000
ROOT
REMARK  Name = valethamate
REMARK                            x       y       z     vdW  Elec       q    Type
REMARK                         _______ _______ _______ _____ _____    ______ ____
ATOM      1  C   UNL     1      60.253  62.722  71.335  0.00  0.00    +0.000 C 
ATOM      2  C   UNL     1      60.249  63.168  70.640  0.00  0.00    +0.000 C 
ATOM      3  C   UNL     1      60.412  62.806  69.916  0.00  0.00    +0.000 C 
ATOM      4  C   UNL     1      60.581  61.999  69.888  0.00  0.00    +0.000 C 
ATOM      5  C   UNL     1      60.407  63.253  69.222  0.00  0.00    +0.000 C 
ATOM      6  C   UNL     1      60.239  64.059  69.251  0.00  0.00    +0.000 C 
ATOM      7  O   UNL     1      60.234  64.504  68.558  0.00  0.00    +0.000 OA
ATOM      8  O   UNL     1      60.075  64.420  69.974  0.00  0.00    +0.000 OA
ATOM      9  C   UNL     1      59.907  65.227  70.004  0.00  0.00    +0.000 C 
ATOM     10  C   UNL     1      59.743  65.588  70.727  0.00  0.00    +0.000 C 
ATOM     11  N   UNL     1      59.574  66.396  70.756  0.00  0.00    +0.000 N 
ATOM     12  C   UNL     1      59.483  66.347  71.575  0.00  0.00    +0.000 C 
ATOM     13  C   UNL     1      59.406  67.202  70.785  0.00  0.00    +0.000 C 
ATOM     14  C   UNL     1      59.242  67.564  71.508  0.00  0.00    +0.000 C 
ATOM     15  C   UNL     1      59.666  66.444  69.937  0.00  0.00    +0.000 C 
ATOM     16  C   UNL     1      59.566  67.167  69.553  0.00  0.00    +0.000 C 
ATOM     17  C   UNL     1      60.571  62.891  68.498  0.00  0.00    +0.000 A 
ATOM     18  C   UNL     1      60.740  62.083  68.470  0.00  0.00    +0.000 A 
ATOM     19  C   UNL     1      60.903  61.722  67.746  0.00  0.00    +0.000 A 
ATOM     20  C   UNL     1      60.899  62.168  67.051  0.00  0.00    +0.000 A 
ATOM     21  C   UNL     1      60.730  62.975  67.081  0.00  0.00    +0.000 A 
ATOM     22  C   UNL     1      60.566  63.336  67.804  0.00  0.00    +0.000 A 
ENDROOT
TORSDOF 0
ENDMDL
MODEL 5
REMARK VINA RESULT:   -10.501      1.522      5.437
REMARK INTER + INTRA:         -10.501
REMARK INTER:                 -10.501
REMARK INTRA:                   0.000
REMARK UNBOUND:                 0.000
ROOT
REMARK  Name = valethamate
REMARK                            x       y       z     vdW  Elec       q    Type
REMARK                         _______ _______ _______ _____ _____    ______ ____
ATOM      1  C   UNL     1      63.554  64.617  69.455  0.00  0.00    +0.000 C 
ATOM      2  C   UNL     1      62.834  64.245  69.613  0.00  0.00    +0.000 C 
ATOM      3  C   UNL     1      62.532  64.240  70.381  0.00  0.00    +0.000 C 
ATOM      4  C   UNL     1      62.950  64.607  70.990  0.00  0.00    +0.000 C 
ATOM      5  C   UNL     1      61.812  63.868  70.538  0.00  0.00    +0.000 C 
ATOM      6  C   UNL     1      61.395  63.502  69.928  0.00  0.00    +0.000 C 
ATOM      7  O   UNL     1      60.676  63.130  70.086  0.00  0.00    +0.000 OA
ATOM      8  O   UNL     1      61.697  63.506  69.161  0.00  0.00    +0.000 OA
ATOM      9  C   UNL     1      61.280  63.140  68.551  0.00  0.00    +0.000 C 
ATOM     10  C   UNL     1      61.582  63.144  67.784  0.00  0.00    +0.000 C 
ATOM     11  N   UNL     1      61.165  62.777  67.174  0.00  0.00    +0.000 N 
ATOM     12  C   UNL     1      61.755  62.994  66.639  0.00  0.00    +0.000 C 
ATOM     13  C   UNL     1      60.748  62.410  66.564  0.00  0.00    +0.000 C 
ATOM     14  C   UNL     1      61.050  62.415  65.797  0.00  0.00    +0.000 C 
ATOM     15  C   UNL     1      60.575  62.560  67.708  0.00  0.00    +0.000 C 
ATOM     16  C   UNL     1      59.919  62.134  67.447  0.00  0.00    +0.000 C 
ATOM     17  C   UNL     1      61.509  63.864  71.306  0.00  0.00    +0.000 A 
ATOM     18  C   UNL     1      61.927  64.231  71.916  0.00  0.00    +0.000 A 
ATOM     19  C   UNL     1      61.625  64.226  72.683  0.00  0.00    +0.000 A 
ATOM     20  C   UNL     1      60.905  63.854  72.841  0.00  0.00    +0.000 A 
ATOM     21  C   UNL     1      60.488  63.488  72.231  0.00  0.00    +0.000 A 
ATOM     22  C   UNL     1      60.790  63.492  71.464  0.00  0.00    +0.000 A 
ENDROOT
TORSDOF 0
ENDMDL
MODEL 6
REMARK VINA RESULT:   -10.460      3.064      6.156
REMARK INTER + INTRA:         -10.460
REMARK INTER:                 -10.460
REMARK INTRA:                   0.000
REMARK UNBOUND:                 0.000
ROOT
REMARK  Name = valethamate
REMARK                            x       y       z     vdW  Elec       q    Type
REMARK                         _______ _______ _______ _____ _____    ______ ____
ATOM      1  C   UNL     1      62.395  65.806  72.600  0.00  0.00    +0.000 C 
ATOM      2  C   UNL     1      62.736  65.731  71.852  0.00  0.00    +0.000 C 
ATOM      3  C   UNL     1      63.417  66.157  71.665  0.00  0.00    +0.000 C 
ATOM      4  C   UNL     1      63.757  66.658  72.226  0.00  0.00    +0.000 C 
ATOM      5  C   UNL     1      63.758  66.082  70.917  0.00  0.00    +0.000 C 
ATOM      6  C   UNL     1      63.419  65.582  70.357  0.00  0.00    +0.000 C 
ATOM      7  O   UNL     1      63.759  65.507  69.610  0.00  0.00    +0.000 OA
ATOM      8  O   UNL     1      62.737  65.156  70.544  0.00  0.00    +0.000 OA
ATOM      9  C   UNL     1      62.397  64.655  69.984  0.00  0.00    +0.000 C 
ATOM     10  C   UNL     1      61.716  64.229  70.171  0.00  0.00    +0.000 C 
ATOM     11  N   UNL     1      61.376  63.728  69.610  0.00  0.00    +0.000 N 
ATOM     12  C   UNL     1      60.785  63.525  70.150  0.00  0.00    +0.000 C 
ATOM     13  C   UNL     1      61.036  63.227  69.050  0.00  0.00    +0.000 C 
ATOM     14  C   UNL     1      60.355  62.801  69.237  0.00  0.00    +0.000 C 
ATOM     15  C   UNL     1      61.967  63.931  69.071  0.00  0.00    +0.000 C 
ATOM     16  C   UNL     1      61.967  63.599  68.316  0.00  0.00    +0.000 C 
ATOM     17  C   UNL     1      64.440  66.509  70.730  0.00  0.00    +0.000 A 
ATOM     18  C   UNL     1      64.780  67.010  71.291  0.00  0.00    +0.000 A 
ATOM     19  C   UNL     1      65.461  67.436  71.104  0.00  0.00    +0.000 A 
ATOM     20  C   UNL     1      65.803  67.361  70.356  0.00  0.00    +0.000 A 
ATOM     21  C   UNL     1      65.462  66.860  69.796  0.00  0.00    +0.000 A 
ATOM     22  C   UNL     1      64.781  66.434  69.983  0.00  0.00    +0.000 A 
ENDROOT
TORSDOF 0
ENDMDL
MODEL 7
REMARK VINA RESULT:   -10.448      3.931      5.999
REMARK INTER + INTRA:         -10.448
REMARK INTER:                 -10.448
REMARK INTRA:                   0.000
REMARK UNBOUND:                 0.000
ROOT
REMARK  Name = valethamate
REMARK                            x       y       z     vdW  Elec       q    Type
REMARK                         _______ _______ _______ _____ _____    ______ ____
ATOM      1  C   UNL     1      62.728  64.236  68.770  0.00  0.00    +0.000 C 
ATOM      2  C   UNL     1      62.808  64.437  69.567  0.00  0.00    +0.000 C 
ATOM      3  C   UNL     1      62.328  64.077  70.134  0.00  0.00    +0.000 C 
ATOM      4  C   UNL     1      61.768  63.516  69.903  0.00  0.00    +0.000 C 
ATOM      5  C   UNL     1      62.408  64.278  70.930  0.00  0.00    +0.000 C 
ATOM      6  C   UNL     1      62.968  64.839  71.160  0.00  0.00    +0.000 C 
ATOM      7  O   UNL     1      63.047  65.039  71.955  0.00  0.00    +0.000 OA
ATOM      8  O   UNL     1      63.447  65.199  70.593  0.00  0.00    +0.000 OA
ATOM      9  C   UNL     1      64.007  65.760  70.822  0.00  0.00    +0.000 C 
ATOM     10  C   UNL     1      64.486  66.119  70.257  0.00  0.00    +0.000 C 
ATOM     11  N   UNL     1      65.046  66.681  70.486  0.00  0.00    +0.000 N 
ATOM     12  C   UNL     1      65.277  66.772  69.699  0.00  0.00    +0.000 C 
ATOM     13  C   UNL     1      65.605  67.241  70.716  0.00  0.00    +0.000 C 
ATOM     14  C   UNL     1      66.085  67.601  70.150  0.00  0.00    +0.000 C 
ATOM     15  C   UNL     1      64.815  66.588  71.273  0.00  0.00    +0.000 C 
ATOM     16  C   UNL     1      65.184  67.028  71.865  0.00  0.00    +0.000 C 
ATOM     17  C   UNL     1      61.928  63.918  71.497  0.00  0.00    +0.000 A 
ATOM     18  C   UNL     1      61.369  63.357  71.266  0.00  0.00    +0.000 A 
ATOM     19  C   UNL     1      60.889  62.997  71.833  0.00  0.00    +0.000 A 
ATOM     20  C   UNL     1      60.969  63.197  72.630  0.00  0.00    +0.000 A 
ATOM     21  C   UNL     1      61.528  63.758  72.859  0.00  0.00    +0.000 A 
ATOM     22  C   UNL     1      62.008  64.118  72.292  0.00  0.00    +0.000 A 
ENDROOT
TORSDOF 0
ENDMDL
MODEL 8
REMARK VINA RESULT:   -10.142      4.404      6.323
REMARK INTER + INTRA:         -10.142
REMARK INTER:                 -10.142
REMARK INTRA:                   0.000
REMARK UNBOUND:                 0.000
ROOT
REMARK  Name = valethamate
REMARK                            x       y       z     vdW  Elec       q    Type
REMARK                         _______ _______ _______ _____ _____    ______ ____
ATOM      1  C   UNL     1      63.406  64.303  69.300  0.00  0.00    +0.000 C 
ATOM      2  C   UNL     1      63.347  64.821  69.941  0.00  0.00    +0.000 C 
ATOM      3  C   UNL     1      63.962  65.347  70.103  0.00  0.00    +0.000 C 
ATOM      4  C   UNL     1      64.635  65.355  69.626  0.00  0.00    +0.000 C 
ATOM      5  C   UNL     1      63.902  65.865  70.743  0.00  0.00    +0.000 C 
ATOM      6  C   UNL     1      63.230  65.856  71.220  0.00  0.00    +0.000 C 
ATOM      7  O   UNL     1      63.171  66.373  71.860  0.00  0.00    +0.000 OA
ATOM      8  O   UNL     1      62.616  65.330  71.057  0.00  0.00    +0.000 OA
ATOM      9  C   UNL     1      61.942  65.321  71.534  0.00  0.00    +0.000 C 
ATOM     10  C   UNL     1      61.329  64.796  71.371  0.00  0.00    +0.000 C 
ATOM     11  N   UNL     1      60.655  64.787  71.849  0.00  0.00    +0.000 N 
ATOM     12  C   UNL     1      60.334  64.184  71.385  0.00  0.00    +0.000 C 
ATOM     13  C   UNL     1      59.983  64.779  72.326  0.00  0.00    +0.000 C 
ATOM     14  C   UNL     1      59.368  64.253  72.163  0.00  0.00    +0.000 C 
ATOM     15  C   UNL     1      60.977  65.390  72.312  0.00  0.00    +0.000 C 
ATOM     16  C   UNL     1      60.554  65.684  72.957  0.00  0.00    +0.000 C 
ATOM     17  C   UNL     1      64.517  66.391  70.906  0.00  0.00    +0.000 A 
ATOM     18  C   UNL     1      65.190  66.399  70.429  0.00  0.00    +0.000 A 
ATOM     19  C   UNL     1      65.805  66.925  70.592  0.00  0.00    +0.000 A 
ATOM     20  C   UNL     1      65.746  67.444  71.232  0.00  0.00    +0.000 A 
ATOM     21  C   UNL     1      65.073  67.435  71.708  0.00  0.00    +0.000 A 
ATOM     22  C   UNL     1      64.459  66.908  71.546  0.00  0.00    +0.000 A 
ENDROOT
TORSDOF 0
ENDMDL
MODEL 9
REMARK VINA RESULT:   -10.074      4.527      6.964
REMARK INTER + INTRA:         -10.074
REMARK INTER:                 -10.074
REMARK INTRA:                   0.000
REMARK UNBOUND:                 0.000
ROOT
REMARK  Name = valethamate
REMARK                            x       y       z     vdW  Elec       q    Type
REMARK                         _______ _______ _______ _____ _____    ______ ____
ATOM      1  C   UNL     1      64.449  64.998  70.563  0.00  0.00    +0.000 C 
ATOM      2  C   UNL     1      63.776  65.236  70.978  0.00  0.00    +0.000 C 
ATOM      3  C   UNL     1      63.760  65.969  71.355  0.00  0.00    +0.000 C 
ATOM      4  C   UNL     1      64.418  66.466  71.317  0.00  0.00    +0.000 C 
ATOM      5  C   UNL     1      63.087  66.206  71.769  0.00  0.00    +0.000 C 
ATOM      6  C   UNL     1      62.430  65.709  71.807  0.00  0.00    +0.000 C 
ATOM      7  O   UNL     1      61.757  65.946  72.221  0.00  0.00    +0.000 OA
ATOM      8  O   UNL     1      62.445  64.976  71.430  0.00  0.00    +0.000 OA
ATOM      9  C   UNL     1      61.788  64.478  71.467  0.00  0.00    +0.000 C 
ATOM     10  C   UNL     1      61.804  63.745  71.091  0.00  0.00    +0.000 C 
ATOM     11  N   UNL     1      61.146  63.248  71.128  0.00  0.00    +0.000 N 
ATOM     12  C   UNL     1      61.544  62.687  70.671  0.00  0.00    +0.000 C 
ATOM     13  C   UNL     1      60.489  62.752  71.166  0.00  0.00    +0.000 C 
ATOM     14  C   UNL     1      60.504  62.018  70.789  0.00  0.00    +0.000 C 
ATOM     15  C   UNL     1      60.749  63.809  71.585  0.00  0.00    +0.000 C 
ATOM     16  C   UNL     1      59.981  63.659  71.846  0.00  0.00    +0.000 C 
ATOM     17  C   UNL     1      63.071  66.940  72.146  0.00  0.00    +0.000 A 
ATOM     18  C   UNL     1      63.729  67.437  72.108  0.00  0.00    +0.000 A 
ATOM     19  C   UNL     1      63.714  68.171  72.485  0.00  0.00    +0.000 A 
ATOM     20  C   UNL     1      63.040  68.408  72.900  0.00  0.00    +0.000 A 
ATOM     21  C   UNL     1      62.383  67.911  72.937  0.00  0.00    +0.000 A 
ATOM     22  C   UNL     1      62.399  67.177  72.560  0.00  0.00    +0.000 A 
ENDROOT
TORSDOF 0
ENDMDL
