MODEL 1
REMARK VINA RESULT:   -11.403      0.000      0.000
REMARK INTER + INTRA:         -11.403
REMARK INTER:                 -11.403
REMARK INTRA:                   0.000
REMARK UNBOUND:                 0.000
ROOT
REMARK  Name = valganciclovir
REMARK                            x       y       z     vdW  Elec       q    Type
REMARK                         _______ _______ _______ _____ _____    ______ ____
ATOM      1  C   UNL     1      61.264  61.202  63.613  0.00  0.00    +0.000 C 
ATOM      2  C   UNL     1      61.643  61.632  64.206  0.00  0.00    +0.000 C 
ATOM      3  C   UNL     1      62.385  61.964  64.066  0.00  0.00    +0.000 C 
ATOM      4  C   UNL     1      61.280  61.730  64.941  0.00  0.00    +0.000 C 
ATOM      5  N   UNL     1      60.538  61.398  65.082  0.00  0.00    +0.000 NA
ATOM      6  C   UNL     1      61.659  62.160  65.534  0.00  0.00    +0.000 C 
ATOM      7  O   UNL     1      62.401  62.492  65.394  0.00  0.00    +0.000 OA
ATOM      8  O   UNL     1      61.295  62.258  66.269  0.00  0.00    +0.000 OA
ATOM      9  C   UNL     1      61.674  62.688  66.862  0.00  0.00    +0.000 C 
ATOM     10  C   UNL     1      61.310  62.786  67.597  0.00  0.00    +0.000 C 
ATOM     11  C   UNL     1      60.568  62.453  67.738  0.00  0.00    +0.000 C 
ATOM     12  O   UNL     1      60.206  62.551  68.471  0.00  0.00    +0.000 OA
ATOM     13  O   UNL     1      61.689  63.216  68.190  0.00  0.00    +0.000 OA
ATOM     14  C   UNL     1      61.326  63.313  68.925  0.00  0.00    +0.000 C 
ATOM     15  N   UNL     1      61.705  63.743  69.518  0.00  0.00    +0.000 N 
ATOM     16  C   UNL     1      62.443  64.106  69.459  0.00  0.00    +0.000 A 
ATOM     17  N   UNL     1      62.607  64.473  70.179  0.00  0.00    +0.000 NA
ATOM     18  C   UNL     1      61.968  64.337  70.684  0.00  0.00    +0.000 A 
ATOM     19  C   UNL     1      61.411  63.886  70.276  0.00  0.00    +0.000 A 
ATOM     20  N   UNL     1      60.708  63.665  70.646  0.00  0.00    +0.000 NA
ATOM     21  C   UNL     1      60.562  63.894  71.426  0.00  0.00    +0.000 A 
ATOM     22  N   UNL     1      59.859  63.672  71.796  0.00  0.00    +0.000 NA
ATOM     23  N   UNL     1      61.120  64.344  71.834  0.00  0.00    +0.000 NA
ATOM     24  C   UNL     1      61.823  64.566  71.463  0.00  0.00    +0.000 A 
ATOM     25  O   UNL     1      62.380  65.017  71.872  0.00  0.00    +0.000 OA
ENDROOT
TORSDOF 0
ENDMDL
MODEL 2
REMARK VINA RESULT:   -11.035      2.022      2.253
REMARK INTER + INTRA:         -11.035
REMARK INTER:                 -11.035
REMARK INTRA:                   0.000
REMARK UNBOUND:                 0.000
ROOT
REMARK  Name = valganciclovir
REMARK                            x       y       z     vdW  Elec       q    Type
REMARK                         _______ _______ _______ _____ _____    ______ ____
ATOM      1  C   UNL     1      62.072  61.103  65.310  0.00  0.00    +0.000 C 
ATOM      2  C   UNL     1      61.869  61.862  65.562  0.00  0.00    +0.000 C 
ATOM      3  C   UNL     1      61.947  62.502  65.048  0.00  0.00    +0.000 C 
ATOM      4  C   UNL     1      61.587  61.980  66.329  0.00  0.00    +0.000 C 
ATOM      5  N   UNL     1      61.508  61.339  66.843  0.00  0.00    +0.000 NA
ATOM      6  C   UNL     1      61.384  62.738  66.581  0.00  0.00    +0.000 C 
ATOM      7  O   UNL     1      61.462  63.379  66.067  0.00  0.00    +0.000 OA
ATOM      8  O   UNL     1      61.102  62.856  67.348  0.00  0.00    +0.000 OA
ATOM      9  C   UNL     1      60.899  63.615  67.600  0.00  0.00    +0.000 C 
ATOM     10  C   UNL     1      60.617  63.733  68.367  0.00  0.00    +0.000 C 
ATOM     11  C   UNL     1      60.538  63.093  68.881  0.00  0.00    +0.000 C 
ATOM     12  O   UNL     1      60.257  63.211  69.647  0.00  0.00    +0.000 OA
ATOM     13  O   UNL     1      60.414  64.492  68.619  0.00  0.00    +0.000 OA
ATOM     14  C   UNL     1      60.132  64.610  69.386  0.00  0.00    +0.000 C 
ATOM     15  N   UNL     1      59.929  65.369  69.638  0.00  0.00    +0.000 N 
ATOM     16  C   UNL     1      59.977  66.059  69.189  0.00  0.00    +0.000 A 
ATOM     17  N   UNL     1      59.720  66.687  69.656  0.00  0.00    +0.000 NA
ATOM     18  C   UNL     1      59.512  66.385  70.396  0.00  0.00    +0.000 A 
ATOM     19  C   UNL     1      59.641  65.570  70.385  0.00  0.00    +0.000 A 
ATOM     20  N   UNL     1      59.480  65.118  71.055  0.00  0.00    +0.000 NA
ATOM     21  C   UNL     1      59.189  65.480  71.737  0.00  0.00    +0.000 A 
ATOM     22  N   UNL     1      59.028  65.027  72.408  0.00  0.00    +0.000 NA
ATOM     23  N   UNL     1      59.060  66.294  71.749  0.00  0.00    +0.000 NA
ATOM     24  C   UNL     1      59.222  66.747  71.078  0.00  0.00    +0.000 A 
ATOM     25  O   UNL     1      59.093  67.562  71.090  0.00  0.00    +0.000 OA
ENDROOT
TORSDOF 0
ENDMDL
MODEL 3
REMARK VINA RESULT:   -10.894      2.702      5.552
REMARK INTER + INTRA:         -10.894
REMARK INTER:                 -10.894
REMARK INTRA:                   0.000
REMARK UNBOUND:                 0.000
ROOT
REMARK  Name = valganciclovir
REMARK                            x       y       z     vdW  Elec       q    Type
REMARK                         _______ _______ _______ _____ _____    ______ ____
ATOM      1  C   UNL     1      66.508  67.587  71.188  0.00  0.00    +0.000 C 
ATOM      2  C   UNL     1      66.016  67.262  70.610  0.00  0.00    +0.000 C 
ATOM      3  C   UNL     1      66.061  67.531  69.831  0.00  0.00    +0.000 C 
ATOM      4  C   UNL     1      65.479  66.668  70.812  0.00  0.00    +0.000 C 
ATOM      5  N   UNL     1      65.435  66.400  71.590  0.00  0.00    +0.000 NA
ATOM      6  C   UNL     1      64.988  66.344  70.234  0.00  0.00    +0.000 C 
ATOM      7  O   UNL     1      65.033  66.613  69.455  0.00  0.00    +0.000 OA
ATOM      8  O   UNL     1      64.451  65.750  70.436  0.00  0.00    +0.000 OA
ATOM      9  C   UNL     1      63.960  65.426  69.858  0.00  0.00    +0.000 C 
ATOM     10  C   UNL     1      63.423  64.832  70.060  0.00  0.00    +0.000 C 
ATOM     11  C   UNL     1      63.378  64.563  70.838  0.00  0.00    +0.000 C 
ATOM     12  O   UNL     1      62.842  63.970  71.040  0.00  0.00    +0.000 OA
ATOM     13  O   UNL     1      62.931  64.507  69.482  0.00  0.00    +0.000 OA
ATOM     14  C   UNL     1      62.395  63.913  69.684  0.00  0.00    +0.000 C 
ATOM     15  N   UNL     1      61.903  63.589  69.106  0.00  0.00    +0.000 N 
ATOM     16  C   UNL     1      61.885  63.800  68.309  0.00  0.00    +0.000 A 
ATOM     17  N   UNL     1      61.314  63.338  67.935  0.00  0.00    +0.000 NA
ATOM     18  C   UNL     1      60.979  62.840  68.501  0.00  0.00    +0.000 A 
ATOM     19  C   UNL     1      61.343  62.995  69.225  0.00  0.00    +0.000 A 
ATOM     20  N   UNL     1      61.117  62.576  69.898  0.00  0.00    +0.000 NA
ATOM     21  C   UNL     1      60.527  62.001  69.848  0.00  0.00    +0.000 A 
ATOM     22  N   UNL     1      60.301  61.581  70.522  0.00  0.00    +0.000 NA
ATOM     23  N   UNL     1      60.163  61.846  69.124  0.00  0.00    +0.000 NA
ATOM     24  C   UNL     1      60.389  62.266  68.450  0.00  0.00    +0.000 A 
ATOM     25  O   UNL     1      60.025  62.111  67.726  0.00  0.00    +0.000 OA
ENDROOT
TORSDOF 0
ENDMDL
MODEL 4
REMARK VINA RESULT:   -10.607      2.886      5.538
REMARK INTER + INTRA:         -10.607
REMARK INTER:                 -10.607
REMARK INTRA:                   0.000
REMARK UNBOUND:                 0.000
ROOT
REMARK  Name = valganciclovir
REMARK                            x       y       z     vdW  Elec       q    Type
REMARK                         _______ _______ _______ _____ _____    ______ ____
ATOM      1  C   UNL     1      66.486  67.752  70.374  0.00  0.00    +0.000 C 
ATOM      2  C   UNL     1      66.002  67.199  70.749  0.00  0.00    +0.000 C 
ATOM      3  C   UNL     1      66.055  67.090  71.565  0.00  0.00    +0.000 C 
ATOM      4  C   UNL     1      65.465  66.754  70.307  0.00  0.00    +0.000 C 
ATOM      5  N   UNL     1      65.412  66.863  69.491  0.00  0.00    +0.000 NA
ATOM      6  C   UNL     1      64.981  66.201  70.682  0.00  0.00    +0.000 C 
ATOM      7  O   UNL     1      65.035  66.092  71.498  0.00  0.00    +0.000 OA
ATOM      8  O   UNL     1      64.444  65.756  70.240  0.00  0.00    +0.000 OA
ATOM      9  C   UNL     1      63.961  65.203  70.615  0.00  0.00    +0.000 C 
ATOM     10  C   UNL     1      63.424  64.758  70.173  0.00  0.00    +0.000 C 
ATOM     11  C   UNL     1      63.371  64.867  69.357  0.00  0.00    +0.000 C 
ATOM     12  O   UNL     1      62.834  64.423  68.916  0.00  0.00    +0.000 OA
ATOM     13  O   UNL     1      62.940  64.205  70.548  0.00  0.00    +0.000 OA
ATOM     14  C   UNL     1      62.403  63.761  70.106  0.00  0.00    +0.000 C 
ATOM     15  N   UNL     1      61.920  63.207  70.481  0.00  0.00    +0.000 N 
ATOM     16  C   UNL     1      61.910  63.038  71.289  0.00  0.00    +0.000 A 
ATOM     17  N   UNL     1      61.346  62.453  71.421  0.00  0.00    +0.000 NA
ATOM     18  C   UNL     1      61.005  62.259  70.694  0.00  0.00    +0.000 A 
ATOM     19  C   UNL     1      61.360  62.725  70.114  0.00  0.00    +0.000 A 
ATOM     20  N   UNL     1      61.127  62.651  69.326  0.00  0.00    +0.000 NA
ATOM     21  C   UNL     1      60.540  62.110  69.119  0.00  0.00    +0.000 A 
ATOM     22  N   UNL     1      60.307  62.035  68.330  0.00  0.00    +0.000 NA
ATOM     23  N   UNL     1      60.185  61.643  69.699  0.00  0.00    +0.000 NA
ATOM     24  C   UNL     1      60.417  61.718  70.488  0.00  0.00    +0.000 A 
ATOM     25  O   UNL     1      60.062  61.251  71.068  0.00  0.00    +0.000 OA
ENDROOT
TORSDOF 0
ENDMDL
MODEL 5
REMARK VINA RESULT:    -9.826      5.737      6.588
REMARK INTER + INTRA:          -9.826
REMARK INTER:                  -9.826
REMARK INTRA:                   0.000
REMARK UNBOUND:                 0.000
ROOT
REMARK  Name = valganciclovir
REMARK                            x       y       z     vdW  Elec       q    Type
REMARK                         _______ _______ _______ _____ _____    ______ ____
ATOM      1  C   UNL     1      66.264  67.247  71.312  0.00  0.00    +0.000 C 
ATOM      2  C   UNL     1      65.612  66.751  71.409  0.00  0.00    +0.000 C 
ATOM      3  C   UNL     1      65.695  65.936  71.313  0.00  0.00    +0.000 C 
ATOM      4  C   UNL     1      64.876  67.071  71.601  0.00  0.00    +0.000 C 
ATOM      5  N   UNL     1      64.792  67.887  71.697  0.00  0.00    +0.000 NA
ATOM      6  C   UNL     1      64.223  66.575  71.697  0.00  0.00    +0.000 C 
ATOM      7  O   UNL     1      64.307  65.760  71.601  0.00  0.00    +0.000 OA
ATOM      8  O   UNL     1      63.487  66.896  71.890  0.00  0.00    +0.000 OA
ATOM      9  C   UNL     1      62.835  66.400  71.986  0.00  0.00    +0.000 C 
ATOM     10  C   UNL     1      62.099  66.720  72.178  0.00  0.00    +0.000 C 
ATOM     11  C   UNL     1      62.015  67.535  72.274  0.00  0.00    +0.000 C 
ATOM     12  O   UNL     1      61.280  67.854  72.466  0.00  0.00    +0.000 OA
ATOM     13  O   UNL     1      61.447  66.224  72.274  0.00  0.00    +0.000 OA
ATOM     14  C   UNL     1      60.710  66.544  72.467  0.00  0.00    +0.000 C 
ATOM     15  N   UNL     1      60.058  66.048  72.563  0.00  0.00    +0.000 N 
ATOM     16  C   UNL     1      60.056  65.227  72.485  0.00  0.00    +0.000 A 
ATOM     17  N   UNL     1      59.291  64.958  72.628  0.00  0.00    +0.000 NA
ATOM     18  C   UNL     1      58.817  65.613  72.795  0.00  0.00    +0.000 A 
ATOM     19  C   UNL     1      59.292  66.287  72.754  0.00  0.00    +0.000 A 
ATOM     20  N   UNL     1      58.965  67.030  72.897  0.00  0.00    +0.000 NA
ATOM     21  C   UNL     1      58.163  67.101  73.080  0.00  0.00    +0.000 A 
ATOM     22  N   UNL     1      57.836  67.845  73.222  0.00  0.00    +0.000 NA
ATOM     23  N   UNL     1      57.689  66.427  73.120  0.00  0.00    +0.000 NA
ATOM     24  C   UNL     1      58.016  65.683  72.978  0.00  0.00    +0.000 A 
ATOM     25  O   UNL     1      57.541  65.009  73.018  0.00  0.00    +0.000 OA
ENDROOT
TORSDOF 0
ENDMDL
MODEL 6
REMARK VINA RESULT:    -8.884     14.546     15.321
REMARK INTER + INTRA:          -8.884
REMARK INTER:                  -8.884
REMARK INTRA:                   0.000
REMARK UNBOUND:                 0.000
ROOT
REMARK  Name = valganciclovir
REMARK                            x       y       z     vdW  Elec       q    Type
REMARK                         _______ _______ _______ _____ _____    ______ ____
ATOM      1  C   UNL     1      61.832  68.673  54.361  0.00  0.00    +0.000 C 
ATOM      2  C   UNL     1      62.314  68.011  54.467  0.00  0.00    +0.000 C 
ATOM      3  C   UNL     1      63.042  68.087  54.848  0.00  0.00    +0.000 C 
ATOM      4  C   UNL     1      62.067  67.273  54.192  0.00  0.00    +0.000 C 
ATOM      5  N   UNL     1      61.339  67.197  53.811  0.00  0.00    +0.000 NA
ATOM      6  C   UNL     1      62.549  66.612  54.298  0.00  0.00    +0.000 C 
ATOM      7  O   UNL     1      63.276  66.688  54.679  0.00  0.00    +0.000 OA
ATOM      8  O   UNL     1      62.302  65.874  54.022  0.00  0.00    +0.000 OA
ATOM      9  C   UNL     1      62.783  65.213  54.128  0.00  0.00    +0.000 C 
ATOM     10  C   UNL     1      62.536  64.474  53.853  0.00  0.00    +0.000 C 
ATOM     11  C   UNL     1      61.808  64.399  53.472  0.00  0.00    +0.000 C 
ATOM     12  O   UNL     1      61.562  63.661  53.197  0.00  0.00    +0.000 OA
ATOM     13  O   UNL     1      63.018  63.813  53.959  0.00  0.00    +0.000 OA
ATOM     14  C   UNL     1      62.771  63.075  53.683  0.00  0.00    +0.000 C 
ATOM     15  N   UNL     1      63.253  62.414  53.789  0.00  0.00    +0.000 N 
ATOM     16  C   UNL     1      63.990  62.404  54.158  0.00  0.00    +0.000 A 
ATOM     17  N   UNL     1      64.274  61.631  54.142  0.00  0.00    +0.000 NA
ATOM     18  C   UNL     1      63.711  61.160  53.763  0.00  0.00    +0.000 A 
ATOM     19  C   UNL     1      63.080  61.645  53.545  0.00  0.00    +0.000 A 
ATOM     20  N   UNL     1      62.430  61.323  53.153  0.00  0.00    +0.000 NA
ATOM     21  C   UNL     1      62.411  60.517  52.977  0.00  0.00    +0.000 A 
ATOM     22  N   UNL     1      61.760  60.195  52.585  0.00  0.00    +0.000 NA
ATOM     23  N   UNL     1      63.042  60.033  53.195  0.00  0.00    +0.000 NA
ATOM     24  C   UNL     1      63.693  60.354  53.588  0.00  0.00    +0.000 A 
ATOM     25  O   UNL     1      64.324  59.870  53.805  0.00  0.00    +0.000 OA
ENDROOT
TORSDOF 0
ENDMDL
MODEL 7
REMARK VINA RESULT:    -8.688      4.557      6.520
REMARK INTER + INTRA:          -8.688
REMARK INTER:                  -8.688
REMARK INTRA:                   0.000
REMARK UNBOUND:                 0.000
ROOT
REMARK  Name = valganciclovir
REMARK                            x       y       z     vdW  Elec       q    Type
REMARK                         _______ _______ _______ _____ _____    ______ ____
ATOM      1  C   UNL     1      67.792  66.863  72.456  0.00  0.00    +0.000 C 
ATOM      2  C   UNL     1      67.200  66.957  71.889  0.00  0.00    +0.000 C 
ATOM      3  C   UNL     1      67.384  67.275  71.150  0.00  0.00    +0.000 C 
ATOM      4  C   UNL     1      66.425  66.731  72.060  0.00  0.00    +0.000 C 
ATOM      5  N   UNL     1      66.242  66.412  72.799  0.00  0.00    +0.000 NA
ATOM      6  C   UNL     1      65.834  66.825  71.493  0.00  0.00    +0.000 C 
ATOM      7  O   UNL     1      66.017  67.144  70.754  0.00  0.00    +0.000 OA
ATOM      8  O   UNL     1      65.058  66.599  71.664  0.00  0.00    +0.000 OA
ATOM      9  C   UNL     1      64.467  66.693  71.097  0.00  0.00    +0.000 C 
ATOM     10  C   UNL     1      63.692  66.467  71.268  0.00  0.00    +0.000 C 
ATOM     11  C   UNL     1      63.508  66.148  72.007  0.00  0.00    +0.000 C 
ATOM     12  O   UNL     1      62.734  65.923  72.178  0.00  0.00    +0.000 OA
ATOM     13  O   UNL     1      63.100  66.561  70.701  0.00  0.00    +0.000 OA
ATOM     14  C   UNL     1      62.325  66.335  70.873  0.00  0.00    +0.000 C 
ATOM     15  N   UNL     1      61.734  66.429  70.305  0.00  0.00    +0.000 N 
ATOM     16  C   UNL     1      61.832  66.738  69.547  0.00  0.00    +0.000 A 
ATOM     17  N   UNL     1      61.100  66.730  69.170  0.00  0.00    +0.000 NA
ATOM     18  C   UNL     1      60.546  66.415  69.695  0.00  0.00    +0.000 A 
ATOM     19  C   UNL     1      60.938  66.229  70.397  0.00  0.00    +0.000 A 
ATOM     20  N   UNL     1      60.520  65.903  71.028  0.00  0.00    +0.000 NA
ATOM     21  C   UNL     1      59.710  65.762  70.958  0.00  0.00    +0.000 A 
ATOM     22  N   UNL     1      59.292  65.435  71.591  0.00  0.00    +0.000 NA
ATOM     23  N   UNL     1      59.318  65.948  70.257  0.00  0.00    +0.000 NA
ATOM     24  C   UNL     1      59.736  66.275  69.625  0.00  0.00    +0.000 A 
ATOM     25  O   UNL     1      59.344  66.461  68.923  0.00  0.00    +0.000 OA
ENDROOT
TORSDOF 0
ENDMDL
