MODEL 1
REMARK VINA RESULT:    -6.505      0.000      0.000
REMARK INTER + INTRA:          -6.505
REMARK INTER:                  -6.505
REMARK INTRA:                   0.000
REMARK UNBOUND:                 0.000
ROOT
REMARK  Name = valproic acid
REMARK                            x       y       z     vdW  Elec       q    Type
REMARK                         _______ _______ _______ _____ _____    ______ ____
ATOM      1  C   UNL     1      59.384  62.036  66.479  0.00  0.00    +0.000 C 
ATOM      2  C   UNL     1      60.163  62.155  66.236  0.00  0.00    +0.000 C 
ATOM      3  C   UNL     1      60.417  61.868  65.506  0.00  0.00    +0.000 C 
ATOM      4  C   UNL     1      61.197  61.987  65.264  0.00  0.00    +0.000 C 
ATOM      5  C   UNL     1      61.451  61.700  64.534  0.00  0.00    +0.000 C 
ATOM      6  C   UNL     1      62.230  61.819  64.291  0.00  0.00    +0.000 C 
ATOM      7  C   UNL     1      62.484  61.533  63.561  0.00  0.00    +0.000 C 
ATOM      8  C   UNL     1      61.723  62.393  65.753  0.00  0.00    +0.000 C 
ATOM      9  O   UNL     1      62.502  62.513  65.511  0.00  0.00    +0.000 OA
ATOM     10  O   UNL     1      61.469  62.680  66.484  0.00  0.00    +0.000 OA
ENDROOT
TORSDOF 0
ENDMDL
MODEL 2
REMARK VINA RESULT:    -6.433      0.137      2.478
REMARK INTER + INTRA:          -6.433
REMARK INTER:                  -6.433
REMARK INTRA:                   0.000
REMARK UNBOUND:                 0.000
ROOT
REMARK  Name = valproic acid
REMARK                            x       y       z     vdW  Elec       q    Type
REMARK                         _______ _______ _______ _____ _____    ______ ____
ATOM      1  C   UNL     1      62.467  61.579  63.613  0.00  0.00    +0.000 C 
ATOM      2  C   UNL     1      62.175  61.890  64.319  0.00  0.00    +0.000 C 
ATOM      3  C   UNL     1      61.405  61.719  64.558  0.00  0.00    +0.000 C 
ATOM      4  C   UNL     1      61.112  62.030  65.265  0.00  0.00    +0.000 C 
ATOM      5  C   UNL     1      60.342  61.859  65.503  0.00  0.00    +0.000 C 
ATOM      6  C   UNL     1      60.050  62.170  66.210  0.00  0.00    +0.000 C 
ATOM      7  C   UNL     1      59.279  62.000  66.448  0.00  0.00    +0.000 C 
ATOM      8  C   UNL     1      61.592  62.511  65.732  0.00  0.00    +0.000 C 
ATOM      9  O   UNL     1      61.301  62.822  66.439  0.00  0.00    +0.000 OA
ATOM     10  O   UNL     1      62.364  62.682  65.494  0.00  0.00    +0.000 OA
ENDROOT
TORSDOF 0
ENDMDL
MODEL 3
REMARK VINA RESULT:    -5.811      2.265      3.212
REMARK INTER + INTRA:          -5.811
REMARK INTER:                  -5.811
REMARK INTRA:                   0.000
REMARK UNBOUND:                 0.000
ROOT
REMARK  Name = valproic acid
REMARK                            x       y       z     vdW  Elec       q    Type
REMARK                         _______ _______ _______ _____ _____    ______ ____
ATOM      1  C   UNL     1      60.772  62.030  70.254  0.00  0.00    +0.000 C 
ATOM      2  C   UNL     1      60.836  62.327  69.487  0.00  0.00    +0.000 C 
ATOM      3  C   UNL     1      60.328  62.057  68.896  0.00  0.00    +0.000 C 
ATOM      4  C   UNL     1      60.392  62.354  68.128  0.00  0.00    +0.000 C 
ATOM      5  C   UNL     1      59.885  62.084  67.537  0.00  0.00    +0.000 C 
ATOM      6  C   UNL     1      59.949  62.382  66.770  0.00  0.00    +0.000 C 
ATOM      7  C   UNL     1      59.441  62.112  66.179  0.00  0.00    +0.000 C 
ATOM      8  C   UNL     1      60.964  62.922  67.953  0.00  0.00    +0.000 C 
ATOM      9  O   UNL     1      61.029  63.220  67.187  0.00  0.00    +0.000 OA
ATOM     10  O   UNL     1      61.473  63.193  68.545  0.00  0.00    +0.000 OA
ENDROOT
TORSDOF 0
ENDMDL
MODEL 4
REMARK VINA RESULT:    -5.713      2.674      4.029
REMARK INTER + INTRA:          -5.713
REMARK INTER:                  -5.713
REMARK INTRA:                   0.000
REMARK UNBOUND:                 0.000
ROOT
REMARK  Name = valproic acid
REMARK                            x       y       z     vdW  Elec       q    Type
REMARK                         _______ _______ _______ _____ _____    ______ ____
ATOM      1  C   UNL     1      60.466  62.446  66.412  0.00  0.00    +0.000 C 
ATOM      2  C   UNL     1      60.702  62.650  67.176  0.00  0.00    +0.000 C 
ATOM      3  C   UNL     1      60.448  62.204  67.820  0.00  0.00    +0.000 C 
ATOM      4  C   UNL     1      60.684  62.408  68.584  0.00  0.00    +0.000 C 
ATOM      5  C   UNL     1      60.429  61.962  69.228  0.00  0.00    +0.000 C 
ATOM      6  C   UNL     1      60.665  62.166  69.992  0.00  0.00    +0.000 C 
ATOM      7  C   UNL     1      60.410  61.720  70.636  0.00  0.00    +0.000 C 
ATOM      8  C   UNL     1      61.175  63.060  68.702  0.00  0.00    +0.000 C 
ATOM      9  O   UNL     1      61.412  63.266  69.465  0.00  0.00    +0.000 OA
ATOM     10  O   UNL     1      61.431  63.508  68.057  0.00  0.00    +0.000 OA
ENDROOT
TORSDOF 0
ENDMDL
MODEL 5
REMARK VINA RESULT:    -5.629      6.765      7.541
REMARK INTER + INTRA:          -5.629
REMARK INTER:                  -5.629
REMARK INTRA:                   0.000
REMARK UNBOUND:                 0.000
ROOT
REMARK  Name = valproic acid
REMARK                            x       y       z     vdW  Elec       q    Type
REMARK                         _______ _______ _______ _____ _____    ______ ____
ATOM      1  C   UNL     1      63.454  64.704  69.599  0.00  0.00    +0.000 C 
ATOM      2  C   UNL     1      63.995  65.146  70.039  0.00  0.00    +0.000 C 
ATOM      3  C   UNL     1      64.412  65.762  69.684  0.00  0.00    +0.000 C 
ATOM      4  C   UNL     1      64.952  66.204  70.124  0.00  0.00    +0.000 C 
ATOM      5  C   UNL     1      65.369  66.820  69.768  0.00  0.00    +0.000 C 
ATOM      6  C   UNL     1      65.909  67.262  70.208  0.00  0.00    +0.000 C 
ATOM      7  C   UNL     1      66.326  67.878  69.852  0.00  0.00    +0.000 C 
ATOM      8  C   UNL     1      65.075  66.029  70.921  0.00  0.00    +0.000 C 
ATOM      9  O   UNL     1      65.615  66.470  71.362  0.00  0.00    +0.000 OA
ATOM     10  O   UNL     1      64.657  65.413  71.277  0.00  0.00    +0.000 OA
ENDROOT
TORSDOF 0
ENDMDL
MODEL 6
REMARK VINA RESULT:    -5.593      4.656      5.770
REMARK INTER + INTRA:          -5.593
REMARK INTER:                  -5.593
REMARK INTRA:                   0.000
REMARK UNBOUND:                 0.000
ROOT
REMARK  Name = valproic acid
REMARK                            x       y       z     vdW  Elec       q    Type
REMARK                         _______ _______ _______ _____ _____    ______ ____
ATOM      1  C   UNL     1      60.344  61.899  68.787  0.00  0.00    +0.000 C 
ATOM      2  C   UNL     1      60.750  62.345  69.350  0.00  0.00    +0.000 C 
ATOM      3  C   UNL     1      60.744  62.116  70.142  0.00  0.00    +0.000 C 
ATOM      4  C   UNL     1      61.150  62.563  70.705  0.00  0.00    +0.000 C 
ATOM      5  C   UNL     1      61.143  62.334  71.497  0.00  0.00    +0.000 C 
ATOM      6  C   UNL     1      61.549  62.780  72.059  0.00  0.00    +0.000 C 
ATOM      7  C   UNL     1      61.543  62.551  72.851  0.00  0.00    +0.000 C 
ATOM      8  C   UNL     1      61.563  63.239  70.475  0.00  0.00    +0.000 C 
ATOM      9  O   UNL     1      61.969  63.686  71.036  0.00  0.00    +0.000 OA
ATOM     10  O   UNL     1      61.570  63.468  69.682  0.00  0.00    +0.000 OA
ENDROOT
TORSDOF 0
ENDMDL
MODEL 7
REMARK VINA RESULT:    -5.560     24.433     25.304
REMARK INTER + INTRA:          -5.560
REMARK INTER:                  -5.560
REMARK INTRA:                   0.000
REMARK UNBOUND:                 0.000
ROOT
REMARK  Name = valproic acid
REMARK                            x       y       z     vdW  Elec       q    Type
REMARK                         _______ _______ _______ _____ _____    ______ ____
ATOM      1  C   UNL     1      72.804  79.225  48.450  0.00  0.00    +0.000 C 
ATOM      2  C   UNL     1      72.077  79.003  48.771  0.00  0.00    +0.000 C 
ATOM      3  C   UNL     1      71.684  79.507  49.291  0.00  0.00    +0.000 C 
ATOM      4  C   UNL     1      70.957  79.285  49.612  0.00  0.00    +0.000 C 
ATOM      5  C   UNL     1      70.565  79.789  50.133  0.00  0.00    +0.000 C 
ATOM      6  C   UNL     1      69.838  79.567  50.454  0.00  0.00    +0.000 C 
ATOM      7  C   UNL     1      69.445  80.071  50.975  0.00  0.00    +0.000 C 
ATOM      8  C   UNL     1      70.624  78.558  49.412  0.00  0.00    +0.000 C 
ATOM      9  O   UNL     1      69.897  78.334  49.732  0.00  0.00    +0.000 OA
ATOM     10  O   UNL     1      71.017  78.052  48.891  0.00  0.00    +0.000 OA
ENDROOT
TORSDOF 0
ENDMDL
MODEL 8
REMARK VINA RESULT:    -5.541     24.464     25.173
REMARK INTER + INTRA:          -5.541
REMARK INTER:                  -5.541
REMARK INTRA:                   0.000
REMARK UNBOUND:                 0.000
ROOT
REMARK  Name = valproic acid
REMARK                            x       y       z     vdW  Elec       q    Type
REMARK                         _______ _______ _______ _____ _____    ______ ____
ATOM      1  C   UNL     1      69.452  80.109  50.980  0.00  0.00    +0.000 C 
ATOM      2  C   UNL     1      69.853  79.602  50.468  0.00  0.00    +0.000 C 
ATOM      3  C   UNL     1      70.603  79.803  50.191  0.00  0.00    +0.000 C 
ATOM      4  C   UNL     1      71.005  79.295  49.679  0.00  0.00    +0.000 C 
ATOM      5  C   UNL     1      71.755  79.497  49.402  0.00  0.00    +0.000 C 
ATOM      6  C   UNL     1      72.156  78.989  48.890  0.00  0.00    +0.000 C 
ATOM      7  C   UNL     1      72.906  79.190  48.613  0.00  0.00    +0.000 C 
ATOM      8  C   UNL     1      70.656  78.586  49.445  0.00  0.00    +0.000 C 
ATOM      9  O   UNL     1      71.056  78.077  48.933  0.00  0.00    +0.000 OA
ATOM     10  O   UNL     1      69.905  78.384  49.722  0.00  0.00    +0.000 OA
ENDROOT
TORSDOF 0
ENDMDL
MODEL 9
REMARK VINA RESULT:    -5.510      4.730      5.646
REMARK INTER + INTRA:          -5.510
REMARK INTER:                  -5.510
REMARK INTRA:                   0.000
REMARK UNBOUND:                 0.000
ROOT
REMARK  Name = valproic acid
REMARK                            x       y       z     vdW  Elec       q    Type
REMARK                         _______ _______ _______ _____ _____    ______ ____
ATOM      1  C   UNL     1      61.605  62.724  72.827  0.00  0.00    +0.000 C 
ATOM      2  C   UNL     1      61.321  62.984  72.098  0.00  0.00    +0.000 C 
ATOM      3  C   UNL     1      61.211  62.446  71.482  0.00  0.00    +0.000 C 
ATOM      4  C   UNL     1      60.926  62.706  70.753  0.00  0.00    +0.000 C 
ATOM      5  C   UNL     1      60.816  62.168  70.137  0.00  0.00    +0.000 C 
ATOM      6  C   UNL     1      60.531  62.428  69.408  0.00  0.00    +0.000 C 
ATOM      7  C   UNL     1      60.421  61.891  68.792  0.00  0.00    +0.000 C 
ATOM      8  C   UNL     1      60.752  63.504  70.639  0.00  0.00    +0.000 C 
ATOM      9  O   UNL     1      60.467  63.765  69.910  0.00  0.00    +0.000 OA
ATOM     10  O   UNL     1      60.862  64.043  71.255  0.00  0.00    +0.000 OA
ENDROOT
TORSDOF 0
ENDMDL
