MODEL 1
REMARK VINA RESULT:   -14.877      0.000      0.000
REMARK INTER + INTRA:         -14.877
REMARK INTER:                 -14.877
REMARK INTRA:                   0.000
REMARK UNBOUND:                 0.000
ROOT
REMARK  Name = verdinexor
REMARK                            x       y       z     vdW  Elec       q    Type
REMARK                         _______ _______ _______ _____ _____    ______ ____
ATOM      1  F   UNL     1      62.260  60.075  72.424  0.00  0.00    +0.000 F 
ATOM      2  C   UNL     1      61.972  60.798  72.152  0.00  0.00    +0.000 C 
ATOM      3  F   UNL     1      61.830  60.463  71.411  0.00  0.00    +0.000 F 
ATOM      4  F   UNL     1      62.113  61.134  72.892  0.00  0.00    +0.000 F 
ATOM      5  C   UNL     1      61.683  61.522  71.879  0.00  0.00    +0.000 A 
ATOM      6  C   UNL     1      61.661  62.173  72.384  0.00  0.00    +0.000 A 
ATOM      7  C   UNL     1      61.372  62.897  72.111  0.00  0.00    +0.000 A 
ATOM      8  C   UNL     1      61.106  62.968  71.334  0.00  0.00    +0.000 A 
ATOM      9  C   UNL     1      61.128  62.316  70.829  0.00  0.00    +0.000 A 
ATOM     10  C   UNL     1      61.416  61.593  71.101  0.00  0.00    +0.000 A 
ATOM     11  C   UNL     1      60.861  62.387  70.052  0.00  0.00    +0.000 A 
ATOM     12  N   UNL     1      60.559  63.071  69.703  0.00  0.00    +0.000 NA
ATOM     13  N   UNL     1      60.360  62.894  68.922  0.00  0.00    +0.000 N 
ATOM     14  C   UNL     1      60.540  62.100  68.788  0.00  0.00    +0.000 A 
ATOM     15  N   UNL     1      60.849  61.787  69.486  0.00  0.00    +0.000 NA
ATOM     16  C   UNL     1      60.039  63.418  68.373  0.00  0.00    +0.000 C 
ATOM     17  C   UNL     1      59.889  64.200  68.587  0.00  0.00    +0.000 C 
ATOM     18  C   UNL     1      60.060  64.458  69.352  0.00  0.00    +0.000 C 
ATOM     19  O   UNL     1      60.381  63.934  69.902  0.00  0.00    +0.000 OA
ATOM     20  N   UNL     1      59.909  65.240  69.566  0.00  0.00    +0.000 NA
ATOM     21  N   UNL     1      60.080  65.498  70.332  0.00  0.00    +0.000 NA
ATOM     22  C   UNL     1      59.930  66.280  70.546  0.00  0.00    +0.000 A 
ATOM     23  N   UNL     1      60.101  66.539  71.311  0.00  0.00    +0.000 NA
ATOM     24  C   UNL     1      59.951  67.320  71.525  0.00  0.00    +0.000 A 
ATOM     25  C   UNL     1      59.629  67.845  70.975  0.00  0.00    +0.000 A 
ATOM     26  C   UNL     1      59.458  67.587  70.211  0.00  0.00    +0.000 A 
ATOM     27  C   UNL     1      59.609  66.805  69.996  0.00  0.00    +0.000 A 
ATOM     28  C   UNL     1      61.351  63.549  72.616  0.00  0.00    +0.000 C 
ATOM     29  F   UNL     1      61.329  64.202  73.121  0.00  0.00    +0.000 F 
ATOM     30  F   UNL     1      61.030  64.008  72.010  0.00  0.00    +0.000 F 
ATOM     31  F   UNL     1      61.671  63.091  73.222  0.00  0.00    +0.000 F 
ENDROOT
TORSDOF 0
ENDMDL
MODEL 2
REMARK VINA RESULT:   -14.462      3.801      5.504
REMARK INTER + INTRA:         -14.462
REMARK INTER:                 -14.462
REMARK INTRA:                   0.000
REMARK UNBOUND:                 0.000
ROOT
REMARK  Name = verdinexor
REMARK                            x       y       z     vdW  Elec       q    Type
REMARK                         _______ _______ _______ _____ _____    ______ ____
ATOM      1  F   UNL     1      66.382  67.862  69.985  0.00  0.00    +0.000 F 
ATOM      2  C   UNL     1      65.753  67.356  70.154  0.00  0.00    +0.000 C 
ATOM      3  F   UNL     1      65.541  67.833  70.793  0.00  0.00    +0.000 F 
ATOM      4  F   UNL     1      65.965  66.879  69.515  0.00  0.00    +0.000 F 
ATOM      5  C   UNL     1      65.124  66.850  70.323  0.00  0.00    +0.000 A 
ATOM      6  C   UNL     1      64.993  66.184  69.854  0.00  0.00    +0.000 A 
ATOM      7  C   UNL     1      64.363  65.678  70.023  0.00  0.00    +0.000 A 
ATOM      8  C   UNL     1      63.865  65.838  70.661  0.00  0.00    +0.000 A 
ATOM      9  C   UNL     1      63.996  66.505  71.129  0.00  0.00    +0.000 A 
ATOM     10  C   UNL     1      64.625  67.010  70.961  0.00  0.00    +0.000 A 
ATOM     11  C   UNL     1      63.498  66.665  71.767  0.00  0.00    +0.000 A 
ATOM     12  N   UNL     1      62.850  66.211  72.002  0.00  0.00    +0.000 NA
ATOM     13  N   UNL     1      62.511  66.573  72.662  0.00  0.00    +0.000 N 
ATOM     14  C   UNL     1      62.950  67.250  72.835  0.00  0.00    +0.000 A 
ATOM     15  N   UNL     1      63.560  67.306  72.282  0.00  0.00    +0.000 NA
ATOM     16  C   UNL     1      61.850  66.305  73.076  0.00  0.00    +0.000 C 
ATOM     17  C   UNL     1      61.466  65.615  72.837  0.00  0.00    +0.000 C 
ATOM     18  C   UNL     1      61.742  65.193  72.184  0.00  0.00    +0.000 C 
ATOM     19  O   UNL     1      62.403  65.461  71.770  0.00  0.00    +0.000 OA
ATOM     20  N   UNL     1      61.358  64.504  71.946  0.00  0.00    +0.000 NA
ATOM     21  N   UNL     1      61.635  64.082  71.293  0.00  0.00    +0.000 NA
ATOM     22  C   UNL     1      61.250  63.392  71.054  0.00  0.00    +0.000 A 
ATOM     23  N   UNL     1      61.527  62.970  70.401  0.00  0.00    +0.000 NA
ATOM     24  C   UNL     1      61.143  62.281  70.163  0.00  0.00    +0.000 A 
ATOM     25  C   UNL     1      60.481  62.013  70.577  0.00  0.00    +0.000 A 
ATOM     26  C   UNL     1      60.205  62.434  71.230  0.00  0.00    +0.000 A 
ATOM     27  C   UNL     1      60.589  63.124  71.468  0.00  0.00    +0.000 A 
ATOM     28  C   UNL     1      64.233  65.012  69.555  0.00  0.00    +0.000 C 
ATOM     29  F   UNL     1      64.101  64.345  69.086  0.00  0.00    +0.000 F 
ATOM     30  F   UNL     1      63.581  64.812  70.021  0.00  0.00    +0.000 F 
ATOM     31  F   UNL     1      64.883  65.211  69.089  0.00  0.00    +0.000 F 
ENDROOT
TORSDOF 0
ENDMDL
MODEL 3
REMARK VINA RESULT:   -14.206      2.373      3.452
REMARK INTER + INTRA:         -14.206
REMARK INTER:                 -14.206
REMARK INTRA:                   0.000
REMARK UNBOUND:                 0.000
ROOT
REMARK  Name = verdinexor
REMARK                            x       y       z     vdW  Elec       q    Type
REMARK                         _______ _______ _______ _____ _____    ______ ____
ATOM      1  F   UNL     1      60.141  61.279  70.730  0.00  0.00    +0.000 F 
ATOM      2  C   UNL     1      60.365  62.034  70.974  0.00  0.00    +0.000 C 
ATOM      3  F   UNL     1      59.594  62.183  71.226  0.00  0.00    +0.000 F 
ATOM      4  F   UNL     1      61.137  61.887  70.722  0.00  0.00    +0.000 F 
ATOM      5  C   UNL     1      60.590  62.790  71.219  0.00  0.00    +0.000 A 
ATOM      6  C   UNL     1      61.370  63.039  71.122  0.00  0.00    +0.000 A 
ATOM      7  C   UNL     1      61.595  63.795  71.367  0.00  0.00    +0.000 A 
ATOM      8  C   UNL     1      61.039  64.301  71.708  0.00  0.00    +0.000 A 
ATOM      9  C   UNL     1      60.259  64.050  71.803  0.00  0.00    +0.000 A 
ATOM     10  C   UNL     1      60.034  63.296  71.559  0.00  0.00    +0.000 A 
ATOM     11  C   UNL     1      59.703  64.556  72.144  0.00  0.00    +0.000 A 
ATOM     12  N   UNL     1      59.846  65.323  72.414  0.00  0.00    +0.000 NA
ATOM     13  N   UNL     1      59.138  65.625  72.711  0.00  0.00    +0.000 N 
ATOM     14  C   UNL     1      58.557  65.044  72.626  0.00  0.00    +0.000 A 
ATOM     15  N   UNL     1      58.907  64.384  72.275  0.00  0.00    +0.000 NA
ATOM     16  C   UNL     1      59.029  66.375  73.037  0.00  0.00    +0.000 C 
ATOM     17  C   UNL     1      59.664  66.898  73.087  0.00  0.00    +0.000 C 
ATOM     18  C   UNL     1      60.408  66.673  72.810  0.00  0.00    +0.000 C 
ATOM     19  O   UNL     1      60.517  65.923  72.484  0.00  0.00    +0.000 OA
ATOM     20  N   UNL     1      61.043  67.197  72.860  0.00  0.00    +0.000 NA
ATOM     21  N   UNL     1      61.787  66.971  72.583  0.00  0.00    +0.000 NA
ATOM     22  C   UNL     1      62.422  67.495  72.633  0.00  0.00    +0.000 A 
ATOM     23  N   UNL     1      63.166  67.269  72.357  0.00  0.00    +0.000 NA
ATOM     24  C   UNL     1      63.801  67.793  72.406  0.00  0.00    +0.000 A 
ATOM     25  C   UNL     1      63.692  68.543  72.732  0.00  0.00    +0.000 A 
ATOM     26  C   UNL     1      62.949  68.769  73.008  0.00  0.00    +0.000 A 
ATOM     27  C   UNL     1      62.314  68.245  72.959  0.00  0.00    +0.000 A 
ATOM     28  C   UNL     1      62.375  64.044  71.271  0.00  0.00    +0.000 C 
ATOM     29  F   UNL     1      63.156  64.294  71.175  0.00  0.00    +0.000 F 
ATOM     30  F   UNL     1      62.184  64.773  71.609  0.00  0.00    +0.000 F 
ATOM     31  F   UNL     1      62.567  63.317  70.933  0.00  0.00    +0.000 F 
ENDROOT
TORSDOF 0
ENDMDL
MODEL 4
REMARK VINA RESULT:   -13.585      3.993      4.836
REMARK INTER + INTRA:         -13.585
REMARK INTER:                 -13.585
REMARK INTRA:                   0.000
REMARK UNBOUND:                 0.000
ROOT
REMARK  Name = verdinexor
REMARK                            x       y       z     vdW  Elec       q    Type
REMARK                         _______ _______ _______ _____ _____    ______ ____
ATOM      1  F   UNL     1      66.961  67.592  70.543  0.00  0.00    +0.000 F 
ATOM      2  C   UNL     1      66.201  67.333  70.730  0.00  0.00    +0.000 C 
ATOM      3  F   UNL     1      66.315  66.662  70.262  0.00  0.00    +0.000 F 
ATOM      4  F   UNL     1      66.087  68.002  71.198  0.00  0.00    +0.000 F 
ATOM      5  C   UNL     1      65.440  67.073  70.917  0.00  0.00    +0.000 A 
ATOM      6  C   UNL     1      64.962  67.523  71.415  0.00  0.00    +0.000 A 
ATOM      7  C   UNL     1      64.201  67.263  71.602  0.00  0.00    +0.000 A 
ATOM      8  C   UNL     1      63.919  66.553  71.290  0.00  0.00    +0.000 A 
ATOM      9  C   UNL     1      64.399  66.103  70.792  0.00  0.00    +0.000 A 
ATOM     10  C   UNL     1      65.159  66.362  70.605  0.00  0.00    +0.000 A 
ATOM     11  C   UNL     1      64.117  65.393  70.480  0.00  0.00    +0.000 A 
ATOM     12  N   UNL     1      63.373  65.065  70.617  0.00  0.00    +0.000 NA
ATOM     13  N   UNL     1      63.326  64.355  70.198  0.00  0.00    +0.000 N 
ATOM     14  C   UNL     1      64.041  64.245  69.803  0.00  0.00    +0.000 A 
ATOM     15  N   UNL     1      64.530  64.887  69.977  0.00  0.00    +0.000 NA
ATOM     16  C   UNL     1      62.678  63.846  70.179  0.00  0.00    +0.000 C 
ATOM     17  C   UNL     1      61.996  64.029  70.605  0.00  0.00    +0.000 C 
ATOM     18  C   UNL     1      61.962  64.723  71.051  0.00  0.00    +0.000 C 
ATOM     19  O   UNL     1      62.610  65.232  71.070  0.00  0.00    +0.000 OA
ATOM     20  N   UNL     1      61.280  64.906  71.477  0.00  0.00    +0.000 NA
ATOM     21  N   UNL     1      61.246  65.600  71.923  0.00  0.00    +0.000 NA
ATOM     22  C   UNL     1      60.564  65.783  72.348  0.00  0.00    +0.000 A 
ATOM     23  N   UNL     1      60.530  66.477  72.794  0.00  0.00    +0.000 NA
ATOM     24  C   UNL     1      59.848  66.660  73.220  0.00  0.00    +0.000 A 
ATOM     25  C   UNL     1      59.199  66.150  73.200  0.00  0.00    +0.000 A 
ATOM     26  C   UNL     1      59.233  65.457  72.755  0.00  0.00    +0.000 A 
ATOM     27  C   UNL     1      59.916  65.274  72.329  0.00  0.00    +0.000 A 
ATOM     28  C   UNL     1      63.723  67.714  72.101  0.00  0.00    +0.000 C 
ATOM     29  F   UNL     1      63.243  68.164  72.599  0.00  0.00    +0.000 F 
ATOM     30  F   UNL     1      63.121  67.153  72.028  0.00  0.00    +0.000 F 
ATOM     31  F   UNL     1      64.324  68.273  72.173  0.00  0.00    +0.000 F 
ENDROOT
TORSDOF 0
ENDMDL
MODEL 5
REMARK VINA RESULT:   -13.562      2.599      5.220
REMARK INTER + INTRA:         -13.562
REMARK INTER:                 -13.562
REMARK INTRA:                   0.000
REMARK UNBOUND:                 0.000
ROOT
REMARK  Name = verdinexor
REMARK                            x       y       z     vdW  Elec       q    Type
REMARK                         _______ _______ _______ _____ _____    ______ ____
ATOM      1  F   UNL     1      63.350  69.102  73.094  0.00  0.00    +0.000 F 
ATOM      2  C   UNL     1      62.968  68.398  72.899  0.00  0.00    +0.000 C 
ATOM      3  F   UNL     1      62.258  68.704  73.187  0.00  0.00    +0.000 F 
ATOM      4  F   UNL     1      63.677  68.091  72.611  0.00  0.00    +0.000 F 
ATOM      5  C   UNL     1      62.584  67.693  72.705  0.00  0.00    +0.000 A 
ATOM      6  C   UNL     1      63.008  67.076  72.358  0.00  0.00    +0.000 A 
ATOM      7  C   UNL     1      62.625  66.371  72.164  0.00  0.00    +0.000 A 
ATOM      8  C   UNL     1      61.819  66.284  72.316  0.00  0.00    +0.000 A 
ATOM      9  C   UNL     1      61.396  66.902  72.663  0.00  0.00    +0.000 A 
ATOM     10  C   UNL     1      61.778  67.606  72.857  0.00  0.00    +0.000 A 
ATOM     11  C   UNL     1      60.590  66.816  72.815  0.00  0.00    +0.000 A 
ATOM     12  N   UNL     1      60.135  66.147  72.652  0.00  0.00    +0.000 NA
ATOM     13  N   UNL     1      59.360  66.300  72.893  0.00  0.00    +0.000 N 
ATOM     14  C   UNL     1      59.337  67.063  73.205  0.00  0.00    +0.000 A 
ATOM     15  N   UNL     1      60.097  67.382  73.157  0.00  0.00    +0.000 NA
ATOM     16  C   UNL     1      58.722  65.781  72.832  0.00  0.00    +0.000 C 
ATOM     17  C   UNL     1      58.829  65.031  72.506  0.00  0.00    +0.000 C 
ATOM     18  C   UNL     1      59.575  64.800  72.240  0.00  0.00    +0.000 C 
ATOM     19  O   UNL     1      60.214  65.319  72.300  0.00  0.00    +0.000 OA
ATOM     20  N   UNL     1      59.683  64.050  71.913  0.00  0.00    +0.000 NA
ATOM     21  N   UNL     1      60.429  63.819  71.647  0.00  0.00    +0.000 NA
ATOM     22  C   UNL     1      60.536  63.069  71.321  0.00  0.00    +0.000 A 
ATOM     23  N   UNL     1      61.282  62.838  71.054  0.00  0.00    +0.000 NA
ATOM     24  C   UNL     1      61.389  62.088  70.728  0.00  0.00    +0.000 A 
ATOM     25  C   UNL     1      60.750  61.569  70.667  0.00  0.00    +0.000 A 
ATOM     26  C   UNL     1      60.005  61.800  70.933  0.00  0.00    +0.000 A 
ATOM     27  C   UNL     1      59.898  62.551  71.260  0.00  0.00    +0.000 A 
ATOM     28  C   UNL     1      63.048  65.754  71.817  0.00  0.00    +0.000 C 
ATOM     29  F   UNL     1      63.471  65.136  71.470  0.00  0.00    +0.000 F 
ATOM     30  F   UNL     1      62.361  65.297  71.793  0.00  0.00    +0.000 F 
ATOM     31  F   UNL     1      63.734  66.210  71.841  0.00  0.00    +0.000 F 
ENDROOT
TORSDOF 0
ENDMDL
MODEL 6
REMARK VINA RESULT:   -13.517      3.159      4.793
REMARK INTER + INTRA:         -13.517
REMARK INTER:                 -13.517
REMARK INTRA:                   0.000
REMARK UNBOUND:                 0.000
ROOT
REMARK  Name = verdinexor
REMARK                            x       y       z     vdW  Elec       q    Type
REMARK                         _______ _______ _______ _____ _____    ______ ____
ATOM      1  F   UNL     1      65.732  66.997  72.095  0.00  0.00    +0.000 F 
ATOM      2  C   UNL     1      65.147  66.552  71.722  0.00  0.00    +0.000 C 
ATOM      3  F   UNL     1      64.651  66.655  72.374  0.00  0.00    +0.000 F 
ATOM      4  F   UNL     1      65.641  66.447  71.070  0.00  0.00    +0.000 F 
ATOM      5  C   UNL     1      64.561  66.106  71.349  0.00  0.00    +0.000 A 
ATOM      6  C   UNL     1      64.697  65.793  70.597  0.00  0.00    +0.000 A 
ATOM      7  C   UNL     1      64.111  65.348  70.224  0.00  0.00    +0.000 A 
ATOM      8  C   UNL     1      63.390  65.215  70.602  0.00  0.00    +0.000 A 
ATOM      9  C   UNL     1      63.255  65.528  71.353  0.00  0.00    +0.000 A 
ATOM     10  C   UNL     1      63.840  65.973  71.726  0.00  0.00    +0.000 A 
ATOM     11  C   UNL     1      62.533  65.395  71.731  0.00  0.00    +0.000 A 
ATOM     12  N   UNL     1      61.899  64.962  71.427  0.00  0.00    +0.000 NA
ATOM     13  N   UNL     1      61.293  64.971  71.987  0.00  0.00    +0.000 N 
ATOM     14  C   UNL     1      61.553  65.409  72.637  0.00  0.00    +0.000 A 
ATOM     15  N   UNL     1      62.319  65.671  72.478  0.00  0.00    +0.000 NA
ATOM     16  C   UNL     1      60.558  64.607  71.911  0.00  0.00    +0.000 C 
ATOM     17  C   UNL     1      60.375  64.185  71.226  0.00  0.00    +0.000 C 
ATOM     18  C   UNL     1      60.928  64.129  70.616  0.00  0.00    +0.000 C 
ATOM     19  O   UNL     1      61.664  64.493  70.693  0.00  0.00    +0.000 OA
ATOM     20  N   UNL     1      60.745  63.707  69.932  0.00  0.00    +0.000 NA
ATOM     21  N   UNL     1      61.299  63.650  69.322  0.00  0.00    +0.000 NA
ATOM     22  C   UNL     1      61.116  63.229  68.637  0.00  0.00    +0.000 A 
ATOM     23  N   UNL     1      61.670  63.172  68.027  0.00  0.00    +0.000 NA
ATOM     24  C   UNL     1      61.487  62.751  67.342  0.00  0.00    +0.000 A 
ATOM     25  C   UNL     1      60.750  62.386  67.267  0.00  0.00    +0.000 A 
ATOM     26  C   UNL     1      60.197  62.443  67.875  0.00  0.00    +0.000 A 
ATOM     27  C   UNL     1      60.380  62.865  68.561  0.00  0.00    +0.000 A 
ATOM     28  C   UNL     1      64.248  65.035  69.473  0.00  0.00    +0.000 C 
ATOM     29  F   UNL     1      64.383  64.722  68.721  0.00  0.00    +0.000 F 
ATOM     30  F   UNL     1      63.493  64.701  69.475  0.00  0.00    +0.000 F 
ATOM     31  F   UNL     1      65.002  65.369  69.470  0.00  0.00    +0.000 F 
ENDROOT
TORSDOF 0
ENDMDL
MODEL 7
REMARK VINA RESULT:   -13.447      2.239      3.516
REMARK INTER + INTRA:         -13.447
REMARK INTER:                 -13.447
REMARK INTRA:                   0.000
REMARK UNBOUND:                 0.000
ROOT
REMARK  Name = verdinexor
REMARK                            x       y       z     vdW  Elec       q    Type
REMARK                         _______ _______ _______ _____ _____    ______ ____
ATOM      1  F   UNL     1      59.849  61.633  67.129  0.00  0.00    +0.000 F 
ATOM      2  C   UNL     1      60.060  62.135  67.747  0.00  0.00    +0.000 C 
ATOM      3  F   UNL     1      60.197  61.482  68.232  0.00  0.00    +0.000 F 
ATOM      4  F   UNL     1      59.923  62.789  67.264  0.00  0.00    +0.000 F 
ATOM      5  C   UNL     1      60.271  62.638  68.367  0.00  0.00    +0.000 A 
ATOM      6  C   UNL     1      60.257  63.456  68.257  0.00  0.00    +0.000 A 
ATOM      7  C   UNL     1      60.468  63.959  68.877  0.00  0.00    +0.000 A 
ATOM      8  C   UNL     1      60.692  63.644  69.606  0.00  0.00    +0.000 A 
ATOM      9  C   UNL     1      60.705  62.826  69.715  0.00  0.00    +0.000 A 
ATOM     10  C   UNL     1      60.495  62.323  69.096  0.00  0.00    +0.000 A 
ATOM     11  C   UNL     1      60.929  62.511  70.444  0.00  0.00    +0.000 A 
ATOM     12  N   UNL     1      61.153  62.943  71.111  0.00  0.00    +0.000 NA
ATOM     13  N   UNL     1      61.331  62.408  71.713  0.00  0.00    +0.000 N 
ATOM     14  C   UNL     1      61.217  61.646  71.419  0.00  0.00    +0.000 A 
ATOM     15  N   UNL     1      60.969  61.710  70.634  0.00  0.00    +0.000 NA
ATOM     16  C   UNL     1      61.579  62.601  72.475  0.00  0.00    +0.000 C 
ATOM     17  C   UNL     1      61.669  63.392  72.692  0.00  0.00    +0.000 C 
ATOM     18  C   UNL     1      61.511  63.990  72.146  0.00  0.00    +0.000 C 
ATOM     19  O   UNL     1      61.263  63.796  71.383  0.00  0.00    +0.000 OA
ATOM     20  N   UNL     1      61.601  64.780  72.362  0.00  0.00    +0.000 NA
ATOM     21  N   UNL     1      61.443  65.379  71.816  0.00  0.00    +0.000 NA
ATOM     22  C   UNL     1      61.533  66.169  72.032  0.00  0.00    +0.000 A 
ATOM     23  N   UNL     1      61.374  66.767  71.486  0.00  0.00    +0.000 NA
ATOM     24  C   UNL     1      61.464  67.558  71.702  0.00  0.00    +0.000 A 
ATOM     25  C   UNL     1      61.713  67.751  72.466  0.00  0.00    +0.000 A 
ATOM     26  C   UNL     1      61.871  67.154  73.011  0.00  0.00    +0.000 A 
ATOM     27  C   UNL     1      61.781  66.363  72.795  0.00  0.00    +0.000 A 
ATOM     28  C   UNL     1      60.455  64.776  68.767  0.00  0.00    +0.000 C 
ATOM     29  F   UNL     1      60.442  65.594  68.658  0.00  0.00    +0.000 F 
ATOM     30  F   UNL     1      60.706  64.885  69.546  0.00  0.00    +0.000 F 
ATOM     31  F   UNL     1      60.204  64.668  67.989  0.00  0.00    +0.000 F 
ENDROOT
TORSDOF 0
ENDMDL
MODEL 8
REMARK VINA RESULT:   -13.329      3.208      4.115
REMARK INTER + INTRA:         -13.329
REMARK INTER:                 -13.329
REMARK INTRA:                   0.000
REMARK UNBOUND:                 0.000
ROOT
REMARK  Name = verdinexor
REMARK                            x       y       z     vdW  Elec       q    Type
REMARK                         _______ _______ _______ _____ _____    ______ ____
ATOM      1  F   UNL     1      59.836  61.664  69.741  0.00  0.00    +0.000 F 
ATOM      2  C   UNL     1      60.367  62.268  69.922  0.00  0.00    +0.000 C 
ATOM      3  F   UNL     1      59.989  62.385  70.646  0.00  0.00    +0.000 F 
ATOM      4  F   UNL     1      60.746  62.152  69.198  0.00  0.00    +0.000 F 
ATOM      5  C   UNL     1      60.899  62.873  70.103  0.00  0.00    +0.000 A 
ATOM      6  C   UNL     1      61.493  63.074  69.566  0.00  0.00    +0.000 A 
ATOM      7  C   UNL     1      62.024  63.679  69.747  0.00  0.00    +0.000 A 
ATOM      8  C   UNL     1      61.962  64.082  70.464  0.00  0.00    +0.000 A 
ATOM      9  C   UNL     1      61.368  63.880  71.000  0.00  0.00    +0.000 A 
ATOM     10  C   UNL     1      60.837  63.276  70.820  0.00  0.00    +0.000 A 
ATOM     11  C   UNL     1      61.306  64.284  71.717  0.00  0.00    +0.000 A 
ATOM     12  N   UNL     1      61.795  64.897  71.972  0.00  0.00    +0.000 NA
ATOM     13  N   UNL     1      61.535  65.137  72.718  0.00  0.00    +0.000 N 
ATOM     14  C   UNL     1      60.886  64.672  72.924  0.00  0.00    +0.000 A 
ATOM     15  N   UNL     1      60.744  64.145  72.305  0.00  0.00    +0.000 NA
ATOM     16  C   UNL     1      61.867  65.737  73.177  0.00  0.00    +0.000 C 
ATOM     17  C   UNL     1      62.519  66.157  72.898  0.00  0.00    +0.000 C 
ATOM     18  C   UNL     1      62.840  65.978  72.159  0.00  0.00    +0.000 C 
ATOM     19  O   UNL     1      62.509  65.379  71.700  0.00  0.00    +0.000 OA
ATOM     20  N   UNL     1      63.492  66.399  71.881  0.00  0.00    +0.000 NA
ATOM     21  N   UNL     1      63.814  66.220  71.142  0.00  0.00    +0.000 NA
ATOM     22  C   UNL     1      64.466  66.640  70.863  0.00  0.00    +0.000 A 
ATOM     23  N   UNL     1      64.787  66.461  70.124  0.00  0.00    +0.000 NA
ATOM     24  C   UNL     1      65.440  66.882  69.845  0.00  0.00    +0.000 A 
ATOM     25  C   UNL     1      65.771  67.482  70.305  0.00  0.00    +0.000 A 
ATOM     26  C   UNL     1      65.450  67.661  71.043  0.00  0.00    +0.000 A 
ATOM     27  C   UNL     1      64.797  67.240  71.322  0.00  0.00    +0.000 A 
ATOM     28  C   UNL     1      62.618  63.880  69.211  0.00  0.00    +0.000 C 
ATOM     29  F   UNL     1      63.212  64.082  68.675  0.00  0.00    +0.000 F 
ATOM     30  F   UNL     1      62.889  64.462  69.729  0.00  0.00    +0.000 F 
ATOM     31  F   UNL     1      62.347  63.298  68.693  0.00  0.00    +0.000 F 
ENDROOT
TORSDOF 0
ENDMDL
MODEL 9
REMARK VINA RESULT:   -12.804      2.972      4.414
REMARK INTER + INTRA:         -12.804
REMARK INTER:                 -12.804
REMARK INTRA:                   0.000
REMARK UNBOUND:                 0.000
ROOT
REMARK  Name = verdinexor
REMARK                            x       y       z     vdW  Elec       q    Type
REMARK                         _______ _______ _______ _____ _____    ______ ____
ATOM      1  F   UNL     1      65.329  64.351  69.814  0.00  0.00    +0.000 F 
ATOM      2  C   UNL     1      64.638  64.616  70.176  0.00  0.00    +0.000 C 
ATOM      3  F   UNL     1      65.053  65.246  70.509  0.00  0.00    +0.000 F 
ATOM      4  F   UNL     1      64.222  63.986  69.843  0.00  0.00    +0.000 F 
ATOM      5  C   UNL     1      63.945  64.881  70.539  0.00  0.00    +0.000 A 
ATOM      6  C   UNL     1      63.240  64.468  70.431  0.00  0.00    +0.000 A 
ATOM      7  C   UNL     1      62.547  64.733  70.794  0.00  0.00    +0.000 A 
ATOM      8  C   UNL     1      62.561  65.412  71.264  0.00  0.00    +0.000 A 
ATOM      9  C   UNL     1      63.268  65.824  71.370  0.00  0.00    +0.000 A 
ATOM     10  C   UNL     1      63.959  65.560  71.008  0.00  0.00    +0.000 A 
ATOM     11  C   UNL     1      63.282  66.503  71.839  0.00  0.00    +0.000 A 
ATOM     12  N   UNL     1      62.636  66.832  72.235  0.00  0.00    +0.000 NA
ATOM     13  N   UNL     1      62.899  67.504  72.636  0.00  0.00    +0.000 N 
ATOM     14  C   UNL     1      63.706  67.590  72.488  0.00  0.00    +0.000 A 
ATOM     15  N   UNL     1      63.942  66.971  71.996  0.00  0.00    +0.000 NA
ATOM     16  C   UNL     1      62.436  68.002  73.102  0.00  0.00    +0.000 C 
ATOM     17  C   UNL     1      61.632  67.847  73.200  0.00  0.00    +0.000 C 
ATOM     18  C   UNL     1      61.291  67.192  72.831  0.00  0.00    +0.000 C 
ATOM     19  O   UNL     1      61.754  66.694  72.365  0.00  0.00    +0.000 OA
ATOM     20  N   UNL     1      60.487  67.036  72.929  0.00  0.00    +0.000 NA
ATOM     21  N   UNL     1      60.145  66.382  72.560  0.00  0.00    +0.000 NA
ATOM     22  C   UNL     1      59.341  66.226  72.657  0.00  0.00    +0.000 A 
ATOM     23  N   UNL     1      59.000  65.571  72.289  0.00  0.00    +0.000 NA
ATOM     24  C   UNL     1      58.196  65.416  72.386  0.00  0.00    +0.000 A 
ATOM     25  C   UNL     1      57.733  65.915  72.853  0.00  0.00    +0.000 A 
ATOM     26  C   UNL     1      58.074  66.569  73.222  0.00  0.00    +0.000 A 
ATOM     27  C   UNL     1      58.878  66.724  73.124  0.00  0.00    +0.000 A 
ATOM     28  C   UNL     1      61.841  64.320  70.687  0.00  0.00    +0.000 C 
ATOM     29  F   UNL     1      61.135  63.907  70.580  0.00  0.00    +0.000 F 
ATOM     30  F   UNL     1      61.449  64.865  71.168  0.00  0.00    +0.000 F 
ATOM     31  F   UNL     1      62.232  63.775  70.207  0.00  0.00    +0.000 F 
ENDROOT
TORSDOF 0
ENDMDL
