MODEL 1
REMARK VINA RESULT:    -9.361      0.000      0.000
REMARK INTER + INTRA:          -9.361
REMARK INTER:                  -9.361
REMARK INTRA:                   0.000
REMARK UNBOUND:                 0.000
ROOT
REMARK  Name = vinbarbital
REMARK                            x       y       z     vdW  Elec       q    Type
REMARK                         _______ _______ _______ _____ _____    ______ ____
ATOM      1  C   UNL     1      60.875  60.529  63.083  0.00  0.00    +0.000 C 
ATOM      2  C   UNL     1      61.348  60.978  63.589  0.00  0.00    +0.000 C 
ATOM      3  C   UNL     1      61.028  61.295  64.279  0.00  0.00    +0.000 C 
ATOM      4  C   UNL     1      61.500  61.744  64.785  0.00  0.00    +0.000 C 
ATOM      5  C   UNL     1      62.294  61.874  64.600  0.00  0.00    +0.000 C 
ATOM      6  C   UNL     1      61.180  62.061  65.475  0.00  0.00    +0.000 C 
ATOM      7  C   UNL     1      61.955  62.336  65.539  0.00  0.00    +0.000 C 
ATOM      8  C   UNL     1      62.507  62.151  64.953  0.00  0.00    +0.000 C 
ATOM      9  C   UNL     1      60.516  61.677  65.173  0.00  0.00    +0.000 C 
ATOM     10  O   UNL     1      60.568  61.264  64.461  0.00  0.00    +0.000 OA
ATOM     11  N   UNL     1      59.800  61.706  65.583  0.00  0.00    +0.000 NA
ATOM     12  C   UNL     1      59.749  62.118  66.295  0.00  0.00    +0.000 C 
ATOM     13  O   UNL     1      59.033  62.147  66.705  0.00  0.00    +0.000 OA
ATOM     14  N   UNL     1      60.414  62.503  66.598  0.00  0.00    +0.000 NA
ATOM     15  C   UNL     1      61.129  62.474  66.188  0.00  0.00    +0.000 C 
ATOM     16  O   UNL     1      61.794  62.859  66.491  0.00  0.00    +0.000 OA
ENDROOT
TORSDOF 0
ENDMDL
MODEL 2
REMARK VINA RESULT:    -8.936      1.194      2.171
REMARK INTER + INTRA:          -8.936
REMARK INTER:                  -8.936
REMARK INTRA:                   0.000
REMARK UNBOUND:                 0.000
ROOT
REMARK  Name = vinbarbital
REMARK                            x       y       z     vdW  Elec       q    Type
REMARK                         _______ _______ _______ _____ _____    ______ ____
ATOM      1  C   UNL     1      62.377  61.817  64.418  0.00  0.00    +0.000 C 
ATOM      2  C   UNL     1      61.612  61.769  64.725  0.00  0.00    +0.000 C 
ATOM      3  C   UNL     1      61.443  62.093  65.464  0.00  0.00    +0.000 C 
ATOM      4  C   UNL     1      60.679  62.044  65.770  0.00  0.00    +0.000 C 
ATOM      5  C   UNL     1      60.084  61.671  65.337  0.00  0.00    +0.000 C 
ATOM      6  C   UNL     1      60.509  62.368  66.509  0.00  0.00    +0.000 C 
ATOM      7  C   UNL     1      59.765  62.072  66.310  0.00  0.00    +0.000 C 
ATOM      8  C   UNL     1      59.656  61.684  65.589  0.00  0.00    +0.000 C 
ATOM      9  C   UNL     1      61.311  62.552  66.453  0.00  0.00    +0.000 C 
ATOM     10  O   UNL     1      61.738  62.330  65.783  0.00  0.00    +0.000 OA
ATOM     11  N   UNL     1      61.686  62.957  67.066  0.00  0.00    +0.000 NA
ATOM     12  C   UNL     1      61.258  63.178  67.736  0.00  0.00    +0.000 C 
ATOM     13  O   UNL     1      61.633  63.583  68.350  0.00  0.00    +0.000 OA
ATOM     14  N   UNL     1      60.456  62.995  67.793  0.00  0.00    +0.000 NA
ATOM     15  C   UNL     1      60.081  62.590  67.179  0.00  0.00    +0.000 C 
ATOM     16  O   UNL     1      59.278  62.406  67.236  0.00  0.00    +0.000 OA
ENDROOT
TORSDOF 0
ENDMDL
MODEL 3
REMARK VINA RESULT:    -8.861      1.225      3.135
REMARK INTER + INTRA:          -8.861
REMARK INTER:                  -8.861
REMARK INTRA:                   0.000
REMARK UNBOUND:                 0.000
ROOT
REMARK  Name = vinbarbital
REMARK                            x       y       z     vdW  Elec       q    Type
REMARK                         _______ _______ _______ _____ _____    ______ ____
ATOM      1  C   UNL     1      61.220  63.581  68.103  0.00  0.00    +0.000 C 
ATOM      2  C   UNL     1      60.694  63.148  67.637  0.00  0.00    +0.000 C 
ATOM      3  C   UNL     1      60.953  62.804  66.934  0.00  0.00    +0.000 C 
ATOM      4  C   UNL     1      60.428  62.372  66.468  0.00  0.00    +0.000 C 
ATOM      5  C   UNL     1      59.642  62.285  66.706  0.00  0.00    +0.000 C 
ATOM      6  C   UNL     1      60.686  62.028  65.765  0.00  0.00    +0.000 C 
ATOM      7  C   UNL     1      59.896  61.792  65.757  0.00  0.00    +0.000 C 
ATOM      8  C   UNL     1      59.393  62.013  66.373  0.00  0.00    +0.000 C 
ATOM      9  C   UNL     1      61.387  62.383  66.017  0.00  0.00    +0.000 C 
ATOM     10  O   UNL     1      61.402  62.809  66.723  0.00  0.00    +0.000 OA
ATOM     11  N   UNL     1      62.072  62.312  65.562  0.00  0.00    +0.000 NA
ATOM     12  C   UNL     1      62.056  61.886  64.857  0.00  0.00    +0.000 C 
ATOM     13  O   UNL     1      62.742  61.815  64.402  0.00  0.00    +0.000 OA
ATOM     14  N   UNL     1      61.355  61.530  64.604  0.00  0.00    +0.000 NA
ATOM     15  C   UNL     1      60.670  61.601  65.059  0.00  0.00    +0.000 C 
ATOM     16  O   UNL     1      59.969  61.245  64.807  0.00  0.00    +0.000 OA
ENDROOT
TORSDOF 0
ENDMDL
MODEL 4
REMARK VINA RESULT:    -8.422      5.794      6.918
REMARK INTER + INTRA:          -8.422
REMARK INTER:                  -8.422
REMARK INTRA:                   0.000
REMARK UNBOUND:                 0.000
ROOT
REMARK  Name = vinbarbital
REMARK                            x       y       z     vdW  Elec       q    Type
REMARK                         _______ _______ _______ _____ _____    ______ ____
ATOM      1  C   UNL     1      60.339  61.498  70.359  0.00  0.00    +0.000 C 
ATOM      2  C   UNL     1      60.718  61.841  71.007  0.00  0.00    +0.000 C 
ATOM      3  C   UNL     1      60.525  62.609  71.238  0.00  0.00    +0.000 C 
ATOM      4  C   UNL     1      60.905  62.952  71.885  0.00  0.00    +0.000 C 
ATOM      5  C   UNL     1      61.478  62.527  72.300  0.00  0.00    +0.000 C 
ATOM      6  C   UNL     1      60.712  63.719  72.117  0.00  0.00    +0.000 C 
ATOM      7  C   UNL     1      61.287  63.541  72.681  0.00  0.00    +0.000 C 
ATOM      8  C   UNL     1      61.657  62.803  72.673  0.00  0.00    +0.000 C 
ATOM      9  C   UNL     1      60.204  63.633  71.473  0.00  0.00    +0.000 C 
ATOM     10  O   UNL     1      60.198  62.927  71.046  0.00  0.00    +0.000 OA
ATOM     11  N   UNL     1      59.703  64.251  71.256  0.00  0.00    +0.000 NA
ATOM     12  C   UNL     1      59.710  64.956  71.683  0.00  0.00    +0.000 C 
ATOM     13  O   UNL     1      59.208  65.575  71.467  0.00  0.00    +0.000 OA
ATOM     14  N   UNL     1      60.218  65.044  72.328  0.00  0.00    +0.000 NA
ATOM     15  C   UNL     1      60.719  64.425  72.545  0.00  0.00    +0.000 C 
ATOM     16  O   UNL     1      61.228  64.512  73.189  0.00  0.00    +0.000 OA
ENDROOT
TORSDOF 0
ENDMDL
MODEL 5
REMARK VINA RESULT:    -8.380      5.414      6.812
REMARK INTER + INTRA:          -8.380
REMARK INTER:                  -8.380
REMARK INTRA:                   0.000
REMARK UNBOUND:                 0.000
ROOT
REMARK  Name = vinbarbital
REMARK                            x       y       z     vdW  Elec       q    Type
REMARK                         _______ _______ _______ _____ _____    ______ ____
ATOM      1  C   UNL     1      59.603  64.934  72.287  0.00  0.00    +0.000 C 
ATOM      2  C   UNL     1      60.161  64.350  72.457  0.00  0.00    +0.000 C 
ATOM      3  C   UNL     1      60.297  63.740  71.918  0.00  0.00    +0.000 C 
ATOM      4  C   UNL     1      60.854  63.156  72.089  0.00  0.00    +0.000 C 
ATOM      5  C   UNL     1      61.275  63.183  72.799  0.00  0.00    +0.000 C 
ATOM      6  C   UNL     1      60.991  62.547  71.551  0.00  0.00    +0.000 C 
ATOM      7  C   UNL     1      61.523  62.335  72.144  0.00  0.00    +0.000 C 
ATOM      8  C   UNL     1      61.588  62.798  72.825  0.00  0.00    +0.000 C 
ATOM      9  C   UNL     1      60.412  62.970  71.144  0.00  0.00    +0.000 C 
ATOM     10  O   UNL     1      60.090  63.653  71.477  0.00  0.00    +0.000 OA
ATOM     11  N   UNL     1      60.154  62.710  70.404  0.00  0.00    +0.000 NA
ATOM     12  C   UNL     1      60.475  62.028  70.072  0.00  0.00    +0.000 C 
ATOM     13  O   UNL     1      60.217  61.767  69.332  0.00  0.00    +0.000 OA
ATOM     14  N   UNL     1      61.055  61.604  70.479  0.00  0.00    +0.000 NA
ATOM     15  C   UNL     1      61.313  61.864  71.218  0.00  0.00    +0.000 C 
ATOM     16  O   UNL     1      61.893  61.440  71.625  0.00  0.00    +0.000 OA
ENDROOT
TORSDOF 0
ENDMDL
MODEL 6
REMARK VINA RESULT:    -8.357      4.244      5.850
REMARK INTER + INTRA:          -8.357
REMARK INTER:                  -8.357
REMARK INTRA:                   0.000
REMARK UNBOUND:                 0.000
ROOT
REMARK  Name = vinbarbital
REMARK                            x       y       z     vdW  Elec       q    Type
REMARK                         _______ _______ _______ _____ _____    ______ ____
ATOM      1  C   UNL     1      61.629  62.996  72.730  0.00  0.00    +0.000 C 
ATOM      2  C   UNL     1      61.233  62.548  72.161  0.00  0.00    +0.000 C 
ATOM      3  C   UNL     1      61.278  62.759  71.365  0.00  0.00    +0.000 C 
ATOM      4  C   UNL     1      60.883  62.312  70.797  0.00  0.00    +0.000 C 
ATOM      5  C   UNL     1      60.442  61.652  71.025  0.00  0.00    +0.000 C 
ATOM      6  C   UNL     1      60.928  62.522  70.001  0.00  0.00    +0.000 C 
ATOM      7  C   UNL     1      60.445  61.856  69.944  0.00  0.00    +0.000 C 
ATOM      8  C   UNL     1      60.237  61.439  70.625  0.00  0.00    +0.000 C 
ATOM      9  C   UNL     1      61.396  63.115  70.333  0.00  0.00    +0.000 C 
ATOM     10  O   UNL     1      61.518  63.135  71.148  0.00  0.00    +0.000 OA
ATOM     11  N   UNL     1      61.741  63.688  69.849  0.00  0.00    +0.000 NA
ATOM     12  C   UNL     1      61.618  63.667  69.035  0.00  0.00    +0.000 C 
ATOM     13  O   UNL     1      61.964  64.241  68.551  0.00  0.00    +0.000 OA
ATOM     14  N   UNL     1      61.151  63.075  68.702  0.00  0.00    +0.000 NA
ATOM     15  C   UNL     1      60.806  62.502  69.185  0.00  0.00    +0.000 C 
ATOM     16  O   UNL     1      60.337  61.909  68.853  0.00  0.00    +0.000 OA
ENDROOT
TORSDOF 0
ENDMDL
MODEL 7
REMARK VINA RESULT:    -8.195      7.248      8.507
REMARK INTER + INTRA:          -8.195
REMARK INTER:                  -8.195
REMARK INTRA:                   0.000
REMARK UNBOUND:                 0.000
ROOT
REMARK  Name = vinbarbital
REMARK                            x       y       z     vdW  Elec       q    Type
REMARK                         _______ _______ _______ _____ _____    ______ ____
ATOM      1  C   UNL     1      66.893  66.695  72.532  0.00  0.00    +0.000 C 
ATOM      2  C   UNL     1      66.596  66.881  71.784  0.00  0.00    +0.000 C 
ATOM      3  C   UNL     1      65.899  66.530  71.518  0.00  0.00    +0.000 C 
ATOM      4  C   UNL     1      65.603  66.716  70.771  0.00  0.00    +0.000 C 
ATOM      5  C   UNL     1      66.006  67.254  70.290  0.00  0.00    +0.000 C 
ATOM      6  C   UNL     1      64.907  66.366  70.504  0.00  0.00    +0.000 C 
ATOM      7  C   UNL     1      65.087  66.838  69.852  0.00  0.00    +0.000 C 
ATOM      8  C   UNL     1      65.764  67.311  69.860  0.00  0.00    +0.000 C 
ATOM      9  C   UNL     1      64.967  66.016  71.248  0.00  0.00    +0.000 C 
ATOM     10  O   UNL     1      65.602  66.203  71.741  0.00  0.00    +0.000 OA
ATOM     11  N   UNL     1      64.393  65.479  71.500  0.00  0.00    +0.000 NA
ATOM     12  C   UNL     1      63.759  65.292  71.007  0.00  0.00    +0.000 C 
ATOM     13  O   UNL     1      63.185  64.755  71.258  0.00  0.00    +0.000 OA
ATOM     14  N   UNL     1      63.698  65.642  70.262  0.00  0.00    +0.000 NA
ATOM     15  C   UNL     1      64.272  66.179  70.011  0.00  0.00    +0.000 C 
ATOM     16  O   UNL     1      64.211  66.530  69.265  0.00  0.00    +0.000 OA
ENDROOT
TORSDOF 0
ENDMDL
MODEL 8
REMARK VINA RESULT:    -7.957     25.480     26.161
REMARK INTER + INTRA:          -7.957
REMARK INTER:                  -7.957
REMARK INTRA:                   0.000
REMARK UNBOUND:                 0.000
ROOT
REMARK  Name = vinbarbital
REMARK                            x       y       z     vdW  Elec       q    Type
REMARK                         _______ _______ _______ _____ _____    ______ ____
ATOM      1  C   UNL     1      69.499  79.931  50.902  0.00  0.00    +0.000 C 
ATOM      2  C   UNL     1      69.872  79.438  50.355  0.00  0.00    +0.000 C 
ATOM      3  C   UNL     1      70.588  79.667  50.015  0.00  0.00    +0.000 C 
ATOM      4  C   UNL     1      70.961  79.174  49.469  0.00  0.00    +0.000 C 
ATOM      5  C   UNL     1      70.617  78.453  49.263  0.00  0.00    +0.000 C 
ATOM      6  C   UNL     1      71.676  79.402  49.128  0.00  0.00    +0.000 C 
ATOM      7  C   UNL     1      71.570  78.673  48.759  0.00  0.00    +0.000 C 
ATOM      8  C   UNL     1      70.902  78.217  48.930  0.00  0.00    +0.000 C 
ATOM      9  C   UNL     1      71.535  80.053  49.615  0.00  0.00    +0.000 C 
ATOM     10  O   UNL     1      70.857  80.078  50.083  0.00  0.00    +0.000 OA
ATOM     11  N   UNL     1      72.073  80.679  49.634  0.00  0.00    +0.000 NA
ATOM     12  C   UNL     1      72.751  80.654  49.165  0.00  0.00    +0.000 C 
ATOM     13  O   UNL     1      73.289  81.280  49.184  0.00  0.00    +0.000 OA
ATOM     14  N   UNL     1      72.892  80.003  48.678  0.00  0.00    +0.000 NA
ATOM     15  C   UNL     1      72.355  79.377  48.660  0.00  0.00    +0.000 C 
ATOM     16  O   UNL     1      72.496  78.726  48.172  0.00  0.00    +0.000 OA
ENDROOT
TORSDOF 0
ENDMDL
MODEL 9
REMARK VINA RESULT:    -7.792      6.108      6.962
REMARK INTER + INTRA:          -7.792
REMARK INTER:                  -7.792
REMARK INTRA:                   0.000
REMARK UNBOUND:                 0.000
ROOT
REMARK  Name = vinbarbital
REMARK                            x       y       z     vdW  Elec       q    Type
REMARK                         _______ _______ _______ _____ _____    ______ ____
ATOM      1  C   UNL     1      61.255  61.612  71.246  0.00  0.00    +0.000 C 
ATOM      2  C   UNL     1      61.313  62.310  71.683  0.00  0.00    +0.000 C 
ATOM      3  C   UNL     1      61.767  62.938  71.400  0.00  0.00    +0.000 C 
ATOM      4  C   UNL     1      61.824  63.635  71.837  0.00  0.00    +0.000 C 
ATOM      5  C   UNL     1      61.428  63.704  72.558  0.00  0.00    +0.000 C 
ATOM      6  C   UNL     1      62.277  64.263  71.554  0.00  0.00    +0.000 C 
ATOM      7  C   UNL     1      62.007  64.590  72.261  0.00  0.00    +0.000 C 
ATOM      8  C   UNL     1      61.513  64.151  72.756  0.00  0.00    +0.000 C 
ATOM      9  C   UNL     1      62.391  63.718  70.945  0.00  0.00    +0.000 C 
ATOM     10  O   UNL     1      62.032  62.977  70.983  0.00  0.00    +0.000 OA
ATOM     11  N   UNL     1      62.864  63.915  70.298  0.00  0.00    +0.000 NA
ATOM     12  C   UNL     1      63.223  64.656  70.261  0.00  0.00    +0.000 C 
ATOM     13  O   UNL     1      63.697  64.854  69.614  0.00  0.00    +0.000 OA
ATOM     14  N   UNL     1      63.110  65.202  70.870  0.00  0.00    +0.000 NA
ATOM     15  C   UNL     1      62.637  65.005  71.516  0.00  0.00    +0.000 C 
ATOM     16  O   UNL     1      62.523  65.550  72.126  0.00  0.00    +0.000 OA
ENDROOT
TORSDOF 0
ENDMDL
