MODEL 1
REMARK VINA RESULT:   -11.362      0.000      0.000
REMARK INTER + INTRA:         -11.362
REMARK INTER:                 -11.362
REMARK INTRA:                   0.000
REMARK UNBOUND:                 0.000
ROOT
REMARK  Name = vinburnine
REMARK                            x       y       z     vdW  Elec       q    Type
REMARK                         _______ _______ _______ _____ _____    ______ ____
ATOM      1  C   UNL     1      60.333  61.884  67.889  0.00  0.00    +0.000 C 
ATOM      2  C   UNL     1      60.414  61.965  68.707  0.00  0.00    +0.000 C 
ATOM      3  C   UNL     1      60.861  62.585  69.017  0.00  0.00    +0.000 C 
ATOM      4  C   UNL     1      60.780  62.504  68.200  0.00  0.00    +0.000 C 
ATOM      5  C   UNL     1      61.147  63.043  67.693  0.00  0.00    +0.000 C 
ATOM      6  C   UNL     1      61.594  63.663  68.004  0.00  0.00    +0.000 C 
ATOM      7  N   UNL     1      61.675  63.744  68.821  0.00  0.00    +0.000 NA
ATOM      8  C   UNL     1      62.122  64.364  69.132  0.00  0.00    +0.000 C 
ATOM      9  C   UNL     1      62.203  64.445  69.949  0.00  0.00    +0.000 C 
ATOM     10  C   UNL     1      61.836  63.906  70.455  0.00  0.00    +0.000 A 
ATOM     11  C   UNL     1      61.389  63.286  70.144  0.00  0.00    +0.000 A 
ATOM     12  C   UNL     1      61.308  63.205  69.328  0.00  0.00    +0.000 C 
ATOM     13  N   UNL     1      61.023  62.748  70.651  0.00  0.00    +0.000 N 
ATOM     14  C   UNL     1      61.200  62.967  71.427  0.00  0.00    +0.000 A 
ATOM     15  C   UNL     1      60.989  62.639  72.154  0.00  0.00    +0.000 A 
ATOM     16  C   UNL     1      61.254  62.985  72.854  0.00  0.00    +0.000 A 
ATOM     17  C   UNL     1      61.729  63.659  72.827  0.00  0.00    +0.000 A 
ATOM     18  C   UNL     1      61.940  63.986  72.100  0.00  0.00    +0.000 A 
ATOM     19  C   UNL     1      61.675  63.640  71.400  0.00  0.00    +0.000 A 
ATOM     20  C   UNL     1      60.576  62.128  70.340  0.00  0.00    +0.000 C 
ATOM     21  O   UNL     1      60.209  61.590  70.847  0.00  0.00    +0.000 OA
ATOM     22  C   UNL     1      60.495  62.047  69.523  0.00  0.00    +0.000 C 
ENDROOT
TORSDOF 0
ENDMDL
MODEL 2
REMARK VINA RESULT:   -11.217      0.585      3.140
REMARK INTER + INTRA:         -11.217
REMARK INTER:                 -11.217
REMARK INTRA:                   0.000
REMARK UNBOUND:                 0.000
ROOT
REMARK  Name = vinburnine
REMARK                            x       y       z     vdW  Elec       q    Type
REMARK                         _______ _______ _______ _____ _____    ______ ____
ATOM      1  C   UNL     1      61.312  63.072  72.876  0.00  0.00    +0.000 C 
ATOM      2  C   UNL     1      61.084  62.800  72.131  0.00  0.00    +0.000 C 
ATOM      3  C   UNL     1      61.366  63.173  71.451  0.00  0.00    +0.000 C 
ATOM      4  C   UNL     1      61.595  63.445  72.196  0.00  0.00    +0.000 C 
ATOM      5  C   UNL     1      62.106  64.090  72.261  0.00  0.00    +0.000 C 
ATOM      6  C   UNL     1      62.389  64.462  71.581  0.00  0.00    +0.000 C 
ATOM      7  N   UNL     1      62.161  64.190  70.836  0.00  0.00    +0.000 NA
ATOM      8  C   UNL     1      62.443  64.563  70.157  0.00  0.00    +0.000 C 
ATOM      9  C   UNL     1      62.215  64.291  69.412  0.00  0.00    +0.000 C 
ATOM     10  C   UNL     1      61.704  63.646  69.347  0.00  0.00    +0.000 A 
ATOM     11  C   UNL     1      61.421  63.274  70.027  0.00  0.00    +0.000 A 
ATOM     12  C   UNL     1      61.649  63.545  70.771  0.00  0.00    +0.000 C 
ATOM     13  N   UNL     1      60.910  62.630  69.961  0.00  0.00    +0.000 N 
ATOM     14  C   UNL     1      60.782  62.486  69.159  0.00  0.00    +0.000 A 
ATOM     15  C   UNL     1      60.328  61.920  68.765  0.00  0.00    +0.000 A 
ATOM     16  C   UNL     1      60.306  61.911  67.941  0.00  0.00    +0.000 A 
ATOM     17  C   UNL     1      60.738  62.466  67.510  0.00  0.00    +0.000 A 
ATOM     18  C   UNL     1      61.192  63.031  67.904  0.00  0.00    +0.000 A 
ATOM     19  C   UNL     1      61.214  63.041  68.729  0.00  0.00    +0.000 A 
ATOM     20  C   UNL     1      60.628  62.257  70.641  0.00  0.00    +0.000 C 
ATOM     21  O   UNL     1      60.116  61.612  70.576  0.00  0.00    +0.000 OA
ATOM     22  C   UNL     1      60.856  62.529  71.386  0.00  0.00    +0.000 C 
ENDROOT
TORSDOF 0
ENDMDL
MODEL 3
REMARK VINA RESULT:   -11.207      2.605      4.270
REMARK INTER + INTRA:         -11.207
REMARK INTER:                 -11.207
REMARK INTRA:                   0.000
REMARK UNBOUND:                 0.000
ROOT
REMARK  Name = vinburnine
REMARK                            x       y       z     vdW  Elec       q    Type
REMARK                         _______ _______ _______ _____ _____    ______ ____
ATOM      1  C   UNL     1      62.296  61.623  64.245  0.00  0.00    +0.000 C 
ATOM      2  C   UNL     1      62.203  62.021  64.962  0.00  0.00    +0.000 C 
ATOM      3  C   UNL     1      61.470  62.022  65.341  0.00  0.00    +0.000 C 
ATOM      4  C   UNL     1      61.563  61.624  64.624  0.00  0.00    +0.000 C 
ATOM      5  C   UNL     1      60.923  61.227  64.286  0.00  0.00    +0.000 C 
ATOM      6  C   UNL     1      60.190  61.228  64.664  0.00  0.00    +0.000 C 
ATOM      7  N   UNL     1      60.097  61.626  65.381  0.00  0.00    +0.000 NA
ATOM      8  C   UNL     1      59.364  61.628  65.760  0.00  0.00    +0.000 C 
ATOM      9  C   UNL     1      59.270  62.026  66.477  0.00  0.00    +0.000 C 
ATOM     10  C   UNL     1      59.910  62.422  66.814  0.00  0.00    +0.000 A 
ATOM     11  C   UNL     1      60.643  62.421  66.435  0.00  0.00    +0.000 A 
ATOM     12  C   UNL     1      60.737  62.023  65.719  0.00  0.00    +0.000 C 
ATOM     13  N   UNL     1      61.282  62.818  66.774  0.00  0.00    +0.000 N 
ATOM     14  C   UNL     1      61.026  63.160  67.480  0.00  0.00    +0.000 A 
ATOM     15  C   UNL     1      61.417  63.616  68.045  0.00  0.00    +0.000 A 
ATOM     16  C   UNL     1      61.009  63.887  68.709  0.00  0.00    +0.000 A 
ATOM     17  C   UNL     1      60.211  63.701  68.808  0.00  0.00    +0.000 A 
ATOM     18  C   UNL     1      59.821  63.245  68.242  0.00  0.00    +0.000 A 
ATOM     19  C   UNL     1      60.229  62.974  67.578  0.00  0.00    +0.000 A 
ATOM     20  C   UNL     1      62.015  62.817  66.395  0.00  0.00    +0.000 C 
ATOM     21  O   UNL     1      62.655  63.214  66.733  0.00  0.00    +0.000 OA
ATOM     22  C   UNL     1      62.109  62.418  65.678  0.00  0.00    +0.000 C 
ENDROOT
TORSDOF 0
ENDMDL
MODEL 4
REMARK VINA RESULT:   -10.928      1.050      1.940
REMARK INTER + INTRA:         -10.928
REMARK INTER:                 -10.928
REMARK INTRA:                   0.000
REMARK UNBOUND:                 0.000
ROOT
REMARK  Name = vinburnine
REMARK                            x       y       z     vdW  Elec       q    Type
REMARK                         _______ _______ _______ _____ _____    ______ ____
ATOM      1  C   UNL     1      61.250  63.233  67.476  0.00  0.00    +0.000 C 
ATOM      2  C   UNL     1      61.416  63.528  68.229  0.00  0.00    +0.000 C 
ATOM      3  C   UNL     1      61.173  63.110  68.898  0.00  0.00    +0.000 C 
ATOM      4  C   UNL     1      61.008  62.815  68.145  0.00  0.00    +0.000 C 
ATOM      5  C   UNL     1      60.599  62.103  68.061  0.00  0.00    +0.000 C 
ATOM      6  C   UNL     1      60.357  61.685  68.730  0.00  0.00    +0.000 C 
ATOM      7  N   UNL     1      60.522  61.980  69.483  0.00  0.00    +0.000 NA
ATOM      8  C   UNL     1      60.280  61.562  70.152  0.00  0.00    +0.000 C 
ATOM      9  C   UNL     1      60.445  61.857  70.905  0.00  0.00    +0.000 C 
ATOM     10  C   UNL     1      60.853  62.569  70.988  0.00  0.00    +0.000 A 
ATOM     11  C   UNL     1      61.096  62.987  70.319  0.00  0.00    +0.000 A 
ATOM     12  C   UNL     1      60.931  62.692  69.567  0.00  0.00    +0.000 C 
ATOM     13  N   UNL     1      61.504  63.698  70.403  0.00  0.00    +0.000 N 
ATOM     14  C   UNL     1      61.588  63.851  71.210  0.00  0.00    +0.000 A 
ATOM     15  C   UNL     1      61.943  64.473  71.620  0.00  0.00    +0.000 A 
ATOM     16  C   UNL     1      61.941  64.477  72.445  0.00  0.00    +0.000 A 
ATOM     17  C   UNL     1      61.585  63.859  72.859  0.00  0.00    +0.000 A 
ATOM     18  C   UNL     1      61.230  63.237  72.449  0.00  0.00    +0.000 A 
ATOM     19  C   UNL     1      61.232  63.233  71.624  0.00  0.00    +0.000 A 
ATOM     20  C   UNL     1      61.747  64.116  69.735  0.00  0.00    +0.000 C 
ATOM     21  O   UNL     1      62.155  64.828  69.818  0.00  0.00    +0.000 OA
ATOM     22  C   UNL     1      61.581  63.821  68.982  0.00  0.00    +0.000 C 
ENDROOT
TORSDOF 0
ENDMDL
MODEL 5
REMARK VINA RESULT:   -10.786      2.520      4.112
REMARK INTER + INTRA:         -10.786
REMARK INTER:                 -10.786
REMARK INTRA:                   0.000
REMARK UNBOUND:                 0.000
ROOT
REMARK  Name = vinburnine
REMARK                            x       y       z     vdW  Elec       q    Type
REMARK                         _______ _______ _______ _____ _____    ______ ____
ATOM      1  C   UNL     1      65.024  66.436  70.360  0.00  0.00    +0.000 C 
ATOM      2  C   UNL     1      64.492  65.813  70.461  0.00  0.00    +0.000 C 
ATOM      3  C   UNL     1      63.925  65.848  71.059  0.00  0.00    +0.000 C 
ATOM      4  C   UNL     1      64.458  66.470  70.959  0.00  0.00    +0.000 C 
ATOM      5  C   UNL     1      64.424  67.127  71.458  0.00  0.00    +0.000 C 
ATOM      6  C   UNL     1      63.857  67.162  72.056  0.00  0.00    +0.000 C 
ATOM      7  N   UNL     1      63.325  66.539  72.157  0.00  0.00    +0.000 NA
ATOM      8  C   UNL     1      62.758  66.574  72.756  0.00  0.00    +0.000 C 
ATOM      9  C   UNL     1      62.226  65.951  72.856  0.00  0.00    +0.000 C 
ATOM     10  C   UNL     1      62.260  65.295  72.358  0.00  0.00    +0.000 A 
ATOM     11  C   UNL     1      62.827  65.260  71.759  0.00  0.00    +0.000 A 
ATOM     12  C   UNL     1      63.359  65.882  71.658  0.00  0.00    +0.000 C 
ATOM     13  N   UNL     1      62.861  64.604  71.261  0.00  0.00    +0.000 N 
ATOM     14  C   UNL     1      62.268  64.078  71.491  0.00  0.00    +0.000 A 
ATOM     15  C   UNL     1      62.041  63.340  71.200  0.00  0.00    +0.000 A 
ATOM     16  C   UNL     1      61.414  62.934  71.549  0.00  0.00    +0.000 A 
ATOM     17  C   UNL     1      61.014  63.266  72.189  0.00  0.00    +0.000 A 
ATOM     18  C   UNL     1      61.240  64.004  72.480  0.00  0.00    +0.000 A 
ATOM     19  C   UNL     1      61.868  64.410  72.131  0.00  0.00    +0.000 A 
ATOM     20  C   UNL     1      63.427  64.569  70.662  0.00  0.00    +0.000 C 
ATOM     21  O   UNL     1      63.461  63.912  70.164  0.00  0.00    +0.000 OA
ATOM     22  C   UNL     1      63.960  65.192  70.562  0.00  0.00    +0.000 C 
ENDROOT
TORSDOF 0
ENDMDL
MODEL 6
REMARK VINA RESULT:   -10.739      2.707      4.227
REMARK INTER + INTRA:         -10.739
REMARK INTER:                 -10.739
REMARK INTRA:                   0.000
REMARK UNBOUND:                 0.000
ROOT
REMARK  Name = vinburnine
REMARK                            x       y       z     vdW  Elec       q    Type
REMARK                         _______ _______ _______ _____ _____    ______ ____
ATOM      1  C   UNL     1      65.002  67.299  71.372  0.00  0.00    +0.000 C 
ATOM      2  C   UNL     1      64.352  66.898  71.684  0.00  0.00    +0.000 C 
ATOM      3  C   UNL     1      64.068  66.220  71.310  0.00  0.00    +0.000 C 
ATOM      4  C   UNL     1      64.718  66.621  70.998  0.00  0.00    +0.000 C 
ATOM      5  C   UNL     1      65.083  66.344  70.311  0.00  0.00    +0.000 C 
ATOM      6  C   UNL     1      64.799  65.667  69.937  0.00  0.00    +0.000 C 
ATOM      7  N   UNL     1      64.149  65.265  70.249  0.00  0.00    +0.000 NA
ATOM      8  C   UNL     1      63.864  64.587  69.874  0.00  0.00    +0.000 C 
ATOM      9  C   UNL     1      63.214  64.186  70.186  0.00  0.00    +0.000 C 
ATOM     10  C   UNL     1      62.849  64.463  70.872  0.00  0.00    +0.000 A 
ATOM     11  C   UNL     1      63.133  65.141  71.247  0.00  0.00    +0.000 A 
ATOM     12  C   UNL     1      63.783  65.542  70.935  0.00  0.00    +0.000 C 
ATOM     13  N   UNL     1      62.768  65.417  71.933  0.00  0.00    +0.000 N 
ATOM     14  C   UNL     1      62.142  64.910  72.110  0.00  0.00    +0.000 A 
ATOM     15  C   UNL     1      61.589  64.909  72.722  0.00  0.00    +0.000 A 
ATOM     16  C   UNL     1      61.014  64.318  72.758  0.00  0.00    +0.000 A 
ATOM     17  C   UNL     1      60.993  63.729  72.182  0.00  0.00    +0.000 A 
ATOM     18  C   UNL     1      61.546  63.729  71.570  0.00  0.00    +0.000 A 
ATOM     19  C   UNL     1      62.120  64.320  71.534  0.00  0.00    +0.000 A 
ATOM     20  C   UNL     1      63.053  66.095  72.307  0.00  0.00    +0.000 C 
ATOM     21  O   UNL     1      62.687  66.371  72.993  0.00  0.00    +0.000 OA
ATOM     22  C   UNL     1      63.703  66.496  71.995  0.00  0.00    +0.000 C 
ENDROOT
TORSDOF 0
ENDMDL
MODEL 7
REMARK VINA RESULT:   -10.666      2.391      3.984
REMARK INTER + INTRA:         -10.666
REMARK INTER:                 -10.666
REMARK INTRA:                   0.000
REMARK UNBOUND:                 0.000
ROOT
REMARK  Name = vinburnine
REMARK                            x       y       z     vdW  Elec       q    Type
REMARK                         _______ _______ _______ _____ _____    ______ ____
ATOM      1  C   UNL     1      61.261  63.040  71.580  0.00  0.00    +0.000 C 
ATOM      2  C   UNL     1      61.889  63.458  71.246  0.00  0.00    +0.000 C 
ATOM      3  C   UNL     1      62.122  64.180  71.570  0.00  0.00    +0.000 C 
ATOM      4  C   UNL     1      61.494  63.762  71.904  0.00  0.00    +0.000 C 
ATOM      5  C   UNL     1      61.099  64.066  72.562  0.00  0.00    +0.000 C 
ATOM      6  C   UNL     1      61.332  64.788  72.885  0.00  0.00    +0.000 C 
ATOM      7  N   UNL     1      61.960  65.206  72.551  0.00  0.00    +0.000 NA
ATOM      8  C   UNL     1      62.194  65.928  72.875  0.00  0.00    +0.000 C 
ATOM      9  C   UNL     1      62.822  66.347  72.541  0.00  0.00    +0.000 C 
ATOM     10  C   UNL     1      63.216  66.042  71.884  0.00  0.00    +0.000 A 
ATOM     11  C   UNL     1      62.983  65.320  71.560  0.00  0.00    +0.000 A 
ATOM     12  C   UNL     1      62.355  64.902  71.893  0.00  0.00    +0.000 C 
ATOM     13  N   UNL     1      63.378  65.017  70.902  0.00  0.00    +0.000 N 
ATOM     14  C   UNL     1      63.973  65.549  70.693  0.00  0.00    +0.000 A 
ATOM     15  C   UNL     1      64.536  65.539  70.090  0.00  0.00    +0.000 A 
ATOM     16  C   UNL     1      65.071  66.162  70.016  0.00  0.00    +0.000 A 
ATOM     17  C   UNL     1      65.044  66.794  70.544  0.00  0.00    +0.000 A 
ATOM     18  C   UNL     1      64.481  66.804  71.148  0.00  0.00    +0.000 A 
ATOM     19  C   UNL     1      63.946  66.181  71.222  0.00  0.00    +0.000 A 
ATOM     20  C   UNL     1      63.145  64.295  70.579  0.00  0.00    +0.000 C 
ATOM     21  O   UNL     1      63.540  63.991  69.921  0.00  0.00    +0.000 OA
ATOM     22  C   UNL     1      62.516  63.876  70.913  0.00  0.00    +0.000 C 
ENDROOT
TORSDOF 0
ENDMDL
MODEL 8
REMARK VINA RESULT:   -10.551      2.133      2.960
REMARK INTER + INTRA:         -10.551
REMARK INTER:                 -10.551
REMARK INTRA:                   0.000
REMARK UNBOUND:                 0.000
ROOT
REMARK  Name = vinburnine
REMARK                            x       y       z     vdW  Elec       q    Type
REMARK                         _______ _______ _______ _____ _____    ______ ____
ATOM      1  C   UNL     1      60.713  61.862  69.019  0.00  0.00    +0.000 C 
ATOM      2  C   UNL     1      60.527  62.665  69.053  0.00  0.00    +0.000 C 
ATOM      3  C   UNL     1      60.379  63.024  69.781  0.00  0.00    +0.000 C 
ATOM      4  C   UNL     1      60.565  62.221  69.747  0.00  0.00    +0.000 C 
ATOM      5  C   UNL     1      60.604  61.776  70.442  0.00  0.00    +0.000 C 
ATOM      6  C   UNL     1      60.456  62.135  71.170  0.00  0.00    +0.000 C 
ATOM      7  N   UNL     1      60.270  62.939  71.203  0.00  0.00    +0.000 NA
ATOM      8  C   UNL     1      60.122  63.298  71.931  0.00  0.00    +0.000 C 
ATOM      9  C   UNL     1      59.935  64.101  71.965  0.00  0.00    +0.000 C 
ATOM     10  C   UNL     1      59.896  64.544  71.270  0.00  0.00    +0.000 A 
ATOM     11  C   UNL     1      60.044  64.185  70.542  0.00  0.00    +0.000 A 
ATOM     12  C   UNL     1      60.231  63.383  70.509  0.00  0.00    +0.000 C 
ATOM     13  N   UNL     1      60.005  64.630  69.849  0.00  0.00    +0.000 N 
ATOM     14  C   UNL     1      59.810  65.405  70.052  0.00  0.00    +0.000 A 
ATOM     15  C   UNL     1      59.696  66.083  69.597  0.00  0.00    +0.000 A 
ATOM     16  C   UNL     1      59.500  66.796  69.961  0.00  0.00    +0.000 A 
ATOM     17  C   UNL     1      59.417  66.831  70.781  0.00  0.00    +0.000 A 
ATOM     18  C   UNL     1      59.531  66.153  71.237  0.00  0.00    +0.000 A 
ATOM     19  C   UNL     1      59.728  65.440  70.872  0.00  0.00    +0.000 A 
ATOM     20  C   UNL     1      60.153  64.271  69.121  0.00  0.00    +0.000 C 
ATOM     21  O   UNL     1      60.114  64.715  68.426  0.00  0.00    +0.000 OA
ATOM     22  C   UNL     1      60.340  63.467  69.087  0.00  0.00    +0.000 C 
ENDROOT
TORSDOF 0
ENDMDL
MODEL 9
REMARK VINA RESULT:   -10.334      1.286      3.671
REMARK INTER + INTRA:         -10.334
REMARK INTER:                 -10.334
REMARK INTRA:                   0.000
REMARK UNBOUND:                 0.000
ROOT
REMARK  Name = vinburnine
REMARK                            x       y       z     vdW  Elec       q    Type
REMARK                         _______ _______ _______ _____ _____    ______ ____
ATOM      1  C   UNL     1      62.567  65.989  71.720  0.00  0.00    +0.000 C 
ATOM      2  C   UNL     1      62.320  65.492  71.109  0.00  0.00    +0.000 C 
ATOM      3  C   UNL     1      61.947  64.777  71.285  0.00  0.00    +0.000 C 
ATOM      4  C   UNL     1      62.193  65.275  71.895  0.00  0.00    +0.000 C 
ATOM      5  C   UNL     1      62.066  65.058  72.682  0.00  0.00    +0.000 C 
ATOM      6  C   UNL     1      61.693  64.343  72.857  0.00  0.00    +0.000 C 
ATOM      7  N   UNL     1      61.447  63.846  72.247  0.00  0.00    +0.000 NA
ATOM      8  C   UNL     1      61.074  63.131  72.423  0.00  0.00    +0.000 C 
ATOM      9  C   UNL     1      60.828  62.633  71.812  0.00  0.00    +0.000 C 
ATOM     10  C   UNL     1      60.955  62.851  71.027  0.00  0.00    +0.000 A 
ATOM     11  C   UNL     1      61.328  63.565  70.851  0.00  0.00    +0.000 A 
ATOM     12  C   UNL     1      61.574  64.062  71.461  0.00  0.00    +0.000 C 
ATOM     13  N   UNL     1      61.455  63.781  70.065  0.00  0.00    +0.000 N 
ATOM     14  C   UNL     1      61.154  63.183  69.583  0.00  0.00    +0.000 A 
ATOM     15  C   UNL     1      61.125  63.096  68.764  0.00  0.00    +0.000 A 
ATOM     16  C   UNL     1      60.782  62.423  68.432  0.00  0.00    +0.000 A 
ATOM     17  C   UNL     1      60.470  61.836  68.921  0.00  0.00    +0.000 A 
ATOM     18  C   UNL     1      60.499  61.923  69.740  0.00  0.00    +0.000 A 
ATOM     19  C   UNL     1      60.841  62.596  70.072  0.00  0.00    +0.000 A 
ATOM     20  C   UNL     1      61.828  64.496  69.889  0.00  0.00    +0.000 C 
ATOM     21  O   UNL     1      61.955  64.713  69.103  0.00  0.00    +0.000 OA
ATOM     22  C   UNL     1      62.074  64.994  70.500  0.00  0.00    +0.000 C 
ENDROOT
TORSDOF 0
ENDMDL
