MODEL 1
REMARK VINA RESULT:   -17.935      0.000      0.000
REMARK INTER + INTRA:         -17.935
REMARK INTER:                 -17.935
REMARK INTRA:                   0.000
REMARK UNBOUND:                 0.000
ROOT
REMARK  Name = viomycin
REMARK                            x       y       z     vdW  Elec       q    Type
REMARK                         _______ _______ _______ _____ _____    ______ ____
ATOM      1  N   UNK A   0      66.877  67.252  70.973  0.00  0.00    +0.000 NA
ATOM      2  C   UNK A   0      66.106  66.978  71.078  0.00  0.00    +0.000 C 
ATOM      3  C   UNK A   0      65.556  67.440  71.483  0.00  0.00    +0.000 C 
ATOM      4  C   UNK A   0      64.785  67.165  71.587  0.00  0.00    +0.000 C 
ATOM      5  C   UNK A   0      64.234  67.627  71.993  0.00  0.00    +0.000 C 
ATOM      6  N   UNK A   0      64.454  68.364  72.293  0.00  0.00    +0.000 NA
ATOM      7  C   UNK A   0      63.462  67.353  72.098  0.00  0.00    +0.000 C 
ATOM      8  C   UNK A   0      62.912  67.815  72.503  0.00  0.00    +0.000 C 
ATOM      9  O   UNK A   0      63.132  68.551  72.802  0.00  0.00    +0.000 OA
ATOM     10  N   UNK A   1      62.142  67.540  72.607  0.00  0.00    +0.000 NA
ATOM     11  C   UNK A   1      61.922  66.805  72.308  0.00  0.00    +0.000 C 
ATOM     12  C   UNK A   1      62.692  67.079  72.203  0.00  0.00    +0.000 C 
ATOM     13  N   UNK A   1      63.242  66.617  71.798  0.00  0.00    +0.000 NA
ATOM     14  C   UNK A   1      63.022  65.881  71.498  0.00  0.00    +0.000 C 
ATOM     15  O   UNK A   1      63.805  65.850  71.236  0.00  0.00    +0.000 OA
ATOM     16  C   UNK A   1      62.252  65.606  71.603  0.00  0.00    +0.000 C 
ATOM     17  N   UNK A   1      62.031  64.870  71.303  0.00  0.00    +0.000 NA
ATOM     18  C   UNK A   1      61.261  64.595  71.407  0.00  0.00    +0.000 C 
ATOM     19  O   UNK A   1      60.710  65.057  71.813  0.00  0.00    +0.000 OA
ATOM     20  C   UNK A   1      61.041  63.858  71.107  0.00  0.00    +0.000 C 
ATOM     21  N   UNK A   1      60.269  63.585  71.213  0.00  0.00    +0.000 NA
ATOM     22  C   UNK A   1      59.719  64.046  71.617  0.00  0.00    +0.000 C 
ATOM     23  O   UNK A   1      58.948  63.772  71.723  0.00  0.00    +0.000 OA
ATOM     24  C   UNK A   3      59.939  64.782  71.917  0.00  0.00    +0.000 C 
ATOM     25  C   UNK A   3      59.168  64.508  72.023  0.00  0.00    +0.000 C 
ATOM     26  O   UNK A   3      58.617  64.970  72.427  0.00  0.00    +0.000 OA
ATOM     27  N   UNK A   3      59.388  65.245  72.323  0.00  0.00    +0.000 NA
ATOM     28  C   SER A   2      59.608  65.981  72.622  0.00  0.00    +0.000 C 
ATOM     29  O   SER A   2      59.058  66.443  73.027  0.00  0.00    +0.000 OA
ATOM     30  CA  SER A   2      60.380  66.256  72.517  0.00  0.00    +0.000 C 
ATOM     31  CB  SER A   2      59.828  66.717  72.922  0.00  0.00    +0.000 C 
ATOM     32  OG  SER A   2      60.049  67.454  73.222  0.00  0.00    +0.000 OA
ATOM     33  N   SER A   2      60.600  66.992  72.817  0.00  0.00    +0.000 NA
ATOM     34  C   UNK A   1      61.370  67.266  72.712  0.00  0.00    +0.000 C 
ATOM     35  O   UNK A   1      61.590  68.002  73.012  0.00  0.00    +0.000 OA
ATOM     36  C   UNK A   1      61.591  63.397  70.703  0.00  0.00    +0.000 C 
ATOM     37  N   UNK A   1      61.371  62.661  70.403  0.00  0.00    +0.000 NA
ATOM     38  C   UNK A   1      60.601  62.387  70.508  0.00  0.00    +0.000 C 
ATOM     39  N   UNK A   1      60.380  61.649  70.207  0.00  0.00    +0.000 NA
ATOM     40  O   UNK A   1      60.049  62.848  70.913  0.00  0.00    +0.000 OA
ATOM     41  C   UNK A   1      62.802  65.145  71.198  0.00  0.00    +0.000 C 
ATOM     42  C   UNK A   1      63.573  65.418  71.093  0.00  0.00    +0.000 C 
ATOM     43  C   UNK A   1      64.125  64.957  70.688  0.00  0.00    +0.000 C 
ATOM     44  O   UNK A   1      64.895  65.231  70.583  0.00  0.00    +0.000 OA
ATOM     45  N   UNK A   1      63.904  64.220  70.388  0.00  0.00    +0.000 NA
ATOM     46  C   UNK A   1      63.133  63.946  70.493  0.00  0.00    +0.000 C 
ATOM     47  N   UNK A   1      62.913  63.210  70.193  0.00  0.00    +0.000 NA
ATOM     48  N   UNK A   1      62.582  64.407  70.898  0.00  0.00    +0.000 NA
ENDROOT
TORSDOF 0
ENDMDL
MODEL 2
REMARK VINA RESULT:   -16.434      1.152      4.470
REMARK INTER + INTRA:         -16.434
REMARK INTER:                 -16.434
REMARK INTRA:                   0.000
REMARK UNBOUND:                 0.000
ROOT
REMARK  Name = viomycin
REMARK                            x       y       z     vdW  Elec       q    Type
REMARK                         _______ _______ _______ _____ _____    ______ ____
ATOM      1  N   UNK A   0      60.518  61.632  68.708  0.00  0.00    +0.000 NA
ATOM      2  C   UNK A   0      60.832  62.295  69.085  0.00  0.00    +0.000 C 
ATOM      3  C   UNK A   0      60.357  62.749  69.584  0.00  0.00    +0.000 C 
ATOM      4  C   UNK A   0      60.672  63.412  69.961  0.00  0.00    +0.000 C 
ATOM      5  C   UNK A   0      60.197  63.866  70.461  0.00  0.00    +0.000 C 
ATOM      6  N   UNK A   0      59.408  63.657  70.583  0.00  0.00    +0.000 NA
ATOM      7  C   UNK A   0      60.512  64.530  70.838  0.00  0.00    +0.000 C 
ATOM      8  C   UNK A   0      60.037  64.983  71.337  0.00  0.00    +0.000 C 
ATOM      9  O   UNK A   0      59.248  64.774  71.459  0.00  0.00    +0.000 OA
ATOM     10  N   UNK A   1      60.351  65.646  71.714  0.00  0.00    +0.000 NA
ATOM     11  C   UNK A   1      61.139  65.855  71.592  0.00  0.00    +0.000 C 
ATOM     12  C   UNK A   1      60.825  65.193  71.215  0.00  0.00    +0.000 C 
ATOM     13  N   UNK A   1      61.299  64.739  70.716  0.00  0.00    +0.000 NA
ATOM     14  C   UNK A   1      62.088  64.948  70.594  0.00  0.00    +0.000 C 
ATOM     15  O   UNK A   1      62.098  64.284  70.103  0.00  0.00    +0.000 OA
ATOM     16  C   UNK A   1      62.403  65.611  70.970  0.00  0.00    +0.000 C 
ATOM     17  N   UNK A   1      63.191  65.820  70.848  0.00  0.00    +0.000 NA
ATOM     18  C   UNK A   1      63.506  66.483  71.225  0.00  0.00    +0.000 C 
ATOM     19  O   UNK A   1      63.031  66.937  71.725  0.00  0.00    +0.000 OA
ATOM     20  C   UNK A   1      64.295  66.692  71.103  0.00  0.00    +0.000 C 
ATOM     21  N   UNK A   1      64.608  67.355  71.480  0.00  0.00    +0.000 NA
ATOM     22  C   UNK A   1      64.134  67.809  71.979  0.00  0.00    +0.000 C 
ATOM     23  O   UNK A   1      64.448  68.472  72.357  0.00  0.00    +0.000 OA
ATOM     24  C   UNK A   3      63.346  67.600  72.101  0.00  0.00    +0.000 C 
ATOM     25  C   UNK A   3      63.659  68.263  72.479  0.00  0.00    +0.000 C 
ATOM     26  O   UNK A   3      63.185  68.717  72.978  0.00  0.00    +0.000 OA
ATOM     27  N   UNK A   3      62.871  68.054  72.601  0.00  0.00    +0.000 NA
ATOM     28  C   SER A   2      62.082  67.845  72.723  0.00  0.00    +0.000 C 
ATOM     29  O   SER A   2      61.607  68.299  73.222  0.00  0.00    +0.000 OA
ATOM     30  CA  SER A   2      61.767  67.181  72.346  0.00  0.00    +0.000 C 
ATOM     31  CB  SER A   2      61.293  67.636  72.846  0.00  0.00    +0.000 C 
ATOM     32  OG  SER A   2      60.505  67.427  72.968  0.00  0.00    +0.000 OA
ATOM     33  N   SER A   2      60.979  66.972  72.468  0.00  0.00    +0.000 NA
ATOM     34  C   UNK A   1      60.665  66.310  72.091  0.00  0.00    +0.000 C 
ATOM     35  O   UNK A   1      59.876  66.101  72.214  0.00  0.00    +0.000 OA
ATOM     36  C   UNK A   1      64.769  66.238  70.604  0.00  0.00    +0.000 C 
ATOM     37  N   UNK A   1      65.557  66.447  70.482  0.00  0.00    +0.000 NA
ATOM     38  C   UNK A   1      65.871  67.110  70.858  0.00  0.00    +0.000 C 
ATOM     39  N   UNK A   1      66.661  67.319  70.736  0.00  0.00    +0.000 NA
ATOM     40  O   UNK A   1      65.397  67.564  71.358  0.00  0.00    +0.000 OA
ATOM     41  C   UNK A   1      62.877  65.157  70.472  0.00  0.00    +0.000 C 
ATOM     42  C   UNK A   1      62.563  64.493  70.094  0.00  0.00    +0.000 C 
ATOM     43  C   UNK A   1      63.037  64.039  69.594  0.00  0.00    +0.000 C 
ATOM     44  O   UNK A   1      62.723  63.376  69.218  0.00  0.00    +0.000 OA
ATOM     45  N   UNK A   1      63.827  64.248  69.472  0.00  0.00    +0.000 NA
ATOM     46  C   UNK A   1      64.140  64.912  69.850  0.00  0.00    +0.000 C 
ATOM     47  N   UNK A   1      64.929  65.121  69.727  0.00  0.00    +0.000 NA
ATOM     48  N   UNK A   1      63.666  65.366  70.349  0.00  0.00    +0.000 NA
ENDROOT
TORSDOF 0
ENDMDL
MODEL 3
REMARK VINA RESULT:   -16.007      1.000      3.394
REMARK INTER + INTRA:         -16.007
REMARK INTER:                 -16.007
REMARK INTRA:                   0.000
REMARK UNBOUND:                 0.000
ROOT
REMARK  Name = viomycin
REMARK                            x       y       z     vdW  Elec       q    Type
REMARK                         _______ _______ _______ _____ _____    ______ ____
ATOM      1  N   UNK A   0      66.323  67.765  70.915  0.00  0.00    +0.000 NA
ATOM      2  C   UNK A   0      65.589  67.403  71.016  0.00  0.00    +0.000 C 
ATOM      3  C   UNK A   0      65.485  66.614  70.799  0.00  0.00    +0.000 C 
ATOM      4  C   UNK A   0      64.751  66.252  70.901  0.00  0.00    +0.000 C 
ATOM      5  C   UNK A   0      64.647  65.462  70.684  0.00  0.00    +0.000 C 
ATOM      6  N   UNK A   0      65.277  65.036  70.364  0.00  0.00    +0.000 NA
ATOM      7  C   UNK A   0      63.912  65.100  70.785  0.00  0.00    +0.000 C 
ATOM      8  C   UNK A   0      63.809  64.311  70.568  0.00  0.00    +0.000 C 
ATOM      9  O   UNK A   0      64.439  63.884  70.249  0.00  0.00    +0.000 OA
ATOM     10  N   UNK A   1      63.074  63.949  70.670  0.00  0.00    +0.000 NA
ATOM     11  C   UNK A   1      62.445  64.375  70.989  0.00  0.00    +0.000 C 
ATOM     12  C   UNK A   1      63.179  64.737  70.887  0.00  0.00    +0.000 C 
ATOM     13  N   UNK A   1      63.283  65.526  71.104  0.00  0.00    +0.000 NA
ATOM     14  C   UNK A   1      62.653  65.952  71.423  0.00  0.00    +0.000 C 
ATOM     15  O   UNK A   1      63.200  66.569  71.456  0.00  0.00    +0.000 OA
ATOM     16  C   UNK A   1      61.919  65.590  71.525  0.00  0.00    +0.000 C 
ATOM     17  N   UNK A   1      61.289  66.017  71.844  0.00  0.00    +0.000 NA
ATOM     18  C   UNK A   1      60.555  65.655  71.946  0.00  0.00    +0.000 C 
ATOM     19  O   UNK A   1      60.451  64.865  71.729  0.00  0.00    +0.000 OA
ATOM     20  C   UNK A   1      59.925  66.082  72.265  0.00  0.00    +0.000 C 
ATOM     21  N   UNK A   1      59.191  65.718  72.367  0.00  0.00    +0.000 NA
ATOM     22  C   UNK A   1      59.086  64.930  72.150  0.00  0.00    +0.000 C 
ATOM     23  O   UNK A   1      58.352  64.567  72.251  0.00  0.00    +0.000 OA
ATOM     24  C   UNK A   3      59.716  64.503  71.831  0.00  0.00    +0.000 C 
ATOM     25  C   UNK A   3      58.982  64.140  71.932  0.00  0.00    +0.000 C 
ATOM     26  O   UNK A   3      58.878  63.352  71.715  0.00  0.00    +0.000 OA
ATOM     27  N   UNK A   3      59.612  63.714  71.613  0.00  0.00    +0.000 NA
ATOM     28  C   SER A   2      60.242  63.287  71.294  0.00  0.00    +0.000 C 
ATOM     29  O   SER A   2      60.139  62.498  71.077  0.00  0.00    +0.000 OA
ATOM     30  CA  SER A   2      60.977  63.650  71.192  0.00  0.00    +0.000 C 
ATOM     31  CB  SER A   2      60.872  62.861  70.975  0.00  0.00    +0.000 C 
ATOM     32  OG  SER A   2      61.502  62.434  70.656  0.00  0.00    +0.000 OA
ATOM     33  N   SER A   2      61.607  63.223  70.873  0.00  0.00    +0.000 NA
ATOM     34  C   UNK A   1      62.340  63.586  70.771  0.00  0.00    +0.000 C 
ATOM     35  O   UNK A   1      62.970  63.159  70.452  0.00  0.00    +0.000 OA
ATOM     36  C   UNK A   1      60.029  66.870  72.482  0.00  0.00    +0.000 C 
ATOM     37  N   UNK A   1      59.399  67.297  72.801  0.00  0.00    +0.000 NA
ATOM     38  C   UNK A   1      58.665  66.934  72.903  0.00  0.00    +0.000 C 
ATOM     39  N   UNK A   1      58.035  67.361  73.222  0.00  0.00    +0.000 NA
ATOM     40  O   UNK A   1      58.561  66.145  72.686  0.00  0.00    +0.000 OA
ATOM     41  C   UNK A   1      62.023  66.379  71.742  0.00  0.00    +0.000 C 
ATOM     42  C   UNK A   1      62.757  66.742  71.641  0.00  0.00    +0.000 C 
ATOM     43  C   UNK A   1      62.862  67.531  71.858  0.00  0.00    +0.000 C 
ATOM     44  O   UNK A   1      63.595  67.893  71.756  0.00  0.00    +0.000 OA
ATOM     45  N   UNK A   1      62.231  67.958  72.177  0.00  0.00    +0.000 NA
ATOM     46  C   UNK A   1      61.497  67.595  72.279  0.00  0.00    +0.000 C 
ATOM     47  N   UNK A   1      60.867  68.022  72.598  0.00  0.00    +0.000 NA
ATOM     48  N   UNK A   1      61.392  66.806  72.062  0.00  0.00    +0.000 NA
ENDROOT
TORSDOF 0
ENDMDL
