MODEL 1
REMARK VINA RESULT:   -16.936      0.000      0.000
REMARK INTER + INTRA:         -16.936
REMARK INTER:                 -16.936
REMARK INTRA:                   0.000
REMARK UNBOUND:                 0.000
ROOT
REMARK  Name = vorapaxar
REMARK                            x       y       z     vdW  Elec       q    Type
REMARK                         _______ _______ _______ _____ _____    ______ ____
ATOM      1  C   UNL     1      63.124  68.709  73.156  0.00  0.00    +0.000 C 
ATOM      2  C   UNL     1      62.793  68.002  72.891  0.00  0.00    +0.000 C 
ATOM      3  O   UNL     1      62.895  67.767  72.107  0.00  0.00    +0.000 OA
ATOM      4  C   UNL     1      62.564  67.060  71.841  0.00  0.00    +0.000 C 
ATOM      5  O   UNL     1      62.131  66.586  72.361  0.00  0.00    +0.000 OA
ATOM      6  N   UNL     1      62.666  66.825  71.057  0.00  0.00    +0.000 NA
ATOM      7  C   UNL     1      62.335  66.117  70.792  0.00  0.00    +0.000 C 
ATOM      8  C   UNL     1      62.437  65.883  70.008  0.00  0.00    +0.000 C 
ATOM      9  C   UNL     1      62.106  65.175  69.742  0.00  0.00    +0.000 C 
ATOM     10  C   UNL     1      61.673  64.702  70.261  0.00  0.00    +0.000 C 
ATOM     11  C   UNL     1      61.571  64.936  71.046  0.00  0.00    +0.000 C 
ATOM     12  C   UNL     1      61.139  64.464  71.564  0.00  0.00    +0.000 C 
ATOM     13  C   UNL     1      60.807  63.756  71.300  0.00  0.00    +0.000 C 
ATOM     14  C   UNL     1      60.909  63.521  70.515  0.00  0.00    +0.000 C 
ATOM     15  C   UNL     1      60.522  62.801  70.412  0.00  0.00    +0.000 C 
ATOM     16  C   UNL     1      60.483  62.367  69.711  0.00  0.00    +0.000 C 
ATOM     17  O   UNL     1      60.180  62.590  71.132  0.00  0.00    +0.000 OA
ATOM     18  C   UNL     1      60.357  63.180  71.680  0.00  0.00    +0.000 C 
ATOM     19  O   UNL     1      60.124  63.192  72.472  0.00  0.00    +0.000 OA
ATOM     20  C   UNL     1      61.343  63.994  69.996  0.00  0.00    +0.000 C 
ATOM     21  C   UNL     1      61.445  63.760  69.211  0.00  0.00    +0.000 C 
ATOM     22  C   UNL     1      61.113  63.052  68.947  0.00  0.00    +0.000 C 
ATOM     23  C   UNL     1      61.215  62.817  68.162  0.00  0.00    +0.000 A 
ATOM     24  C   UNL     1      60.885  62.110  67.896  0.00  0.00    +0.000 A 
ATOM     25  C   UNL     1      60.987  61.876  67.112  0.00  0.00    +0.000 A 
ATOM     26  C   UNL     1      61.419  62.348  66.593  0.00  0.00    +0.000 A 
ATOM     27  C   UNL     1      61.751  63.056  66.858  0.00  0.00    +0.000 A 
ATOM     28  N   UNL     1      61.649  63.291  67.643  0.00  0.00    +0.000 NA
ATOM     29  C   UNL     1      61.521  62.114  65.809  0.00  0.00    +0.000 A 
ATOM     30  C   UNL     1      61.191  61.407  65.543  0.00  0.00    +0.000 A 
ATOM     31  C   UNL     1      61.293  61.172  64.759  0.00  0.00    +0.000 A 
ATOM     32  F   UNL     1      60.961  60.464  64.494  0.00  0.00    +0.000 F 
ATOM     33  C   UNL     1      61.725  61.645  64.240  0.00  0.00    +0.000 A 
ATOM     34  C   UNL     1      62.056  62.353  64.505  0.00  0.00    +0.000 A 
ATOM     35  C   UNL     1      61.954  62.587  65.289  0.00  0.00    +0.000 A 
ATOM     36  C   UNL     1      61.903  65.644  71.311  0.00  0.00    +0.000 C 
ENDROOT
TORSDOF 0
ENDMDL
MODEL 2
REMARK VINA RESULT:   -16.272      1.835      2.090
REMARK INTER + INTRA:         -16.272
REMARK INTER:                 -16.272
REMARK INTRA:                   0.000
REMARK UNBOUND:                 0.000
ROOT
REMARK  Name = vorapaxar
REMARK                            x       y       z     vdW  Elec       q    Type
REMARK                         _______ _______ _______ _____ _____    ______ ____
ATOM      1  C   UNL     1      67.274  67.183  72.273  0.00  0.00    +0.000 C 
ATOM      2  C   UNL     1      66.523  66.853  72.177  0.00  0.00    +0.000 C 
ATOM      3  O   UNL     1      66.317  66.500  71.461  0.00  0.00    +0.000 OA
ATOM      4  C   UNL     1      65.567  66.170  71.364  0.00  0.00    +0.000 C 
ATOM      5  O   UNL     1      65.023  66.193  71.985  0.00  0.00    +0.000 OA
ATOM      6  N   UNL     1      65.360  65.817  70.648  0.00  0.00    +0.000 NA
ATOM      7  C   UNL     1      64.610  65.487  70.552  0.00  0.00    +0.000 C 
ATOM      8  C   UNL     1      64.403  65.134  69.836  0.00  0.00    +0.000 C 
ATOM      9  C   UNL     1      63.653  64.804  69.739  0.00  0.00    +0.000 C 
ATOM     10  C   UNL     1      63.109  64.828  70.360  0.00  0.00    +0.000 C 
ATOM     11  C   UNL     1      63.316  65.181  71.077  0.00  0.00    +0.000 C 
ATOM     12  C   UNL     1      62.773  65.204  71.697  0.00  0.00    +0.000 C 
ATOM     13  C   UNL     1      62.023  64.874  71.601  0.00  0.00    +0.000 C 
ATOM     14  C   UNL     1      61.816  64.521  70.885  0.00  0.00    +0.000 C 
ATOM     15  C   UNL     1      61.042  64.244  70.951  0.00  0.00    +0.000 C 
ATOM     16  C   UNL     1      60.615  63.853  70.363  0.00  0.00    +0.000 C 
ATOM     17  O   UNL     1      60.770  64.425  71.708  0.00  0.00    +0.000 OA
ATOM     18  C   UNL     1      61.377  64.815  72.110  0.00  0.00    +0.000 C 
ATOM     19  O   UNL     1      61.343  65.096  72.885  0.00  0.00    +0.000 OA
ATOM     20  C   UNL     1      62.360  64.498  70.264  0.00  0.00    +0.000 C 
ATOM     21  C   UNL     1      62.153  64.145  69.547  0.00  0.00    +0.000 C 
ATOM     22  C   UNL     1      61.402  63.815  69.452  0.00  0.00    +0.000 C 
ATOM     23  C   UNL     1      61.195  63.462  68.736  0.00  0.00    +0.000 A 
ATOM     24  C   UNL     1      60.446  63.132  68.639  0.00  0.00    +0.000 A 
ATOM     25  C   UNL     1      60.239  62.779  67.923  0.00  0.00    +0.000 A 
ATOM     26  C   UNL     1      60.782  62.756  67.303  0.00  0.00    +0.000 A 
ATOM     27  C   UNL     1      61.532  63.086  67.398  0.00  0.00    +0.000 A 
ATOM     28  N   UNL     1      61.739  63.439  68.115  0.00  0.00    +0.000 NA
ATOM     29  C   UNL     1      60.575  62.403  66.586  0.00  0.00    +0.000 A 
ATOM     30  C   UNL     1      59.825  62.073  66.490  0.00  0.00    +0.000 A 
ATOM     31  C   UNL     1      59.618  61.720  65.773  0.00  0.00    +0.000 A 
ATOM     32  F   UNL     1      58.868  61.390  65.678  0.00  0.00    +0.000 F 
ATOM     33  C   UNL     1      60.162  61.697  65.154  0.00  0.00    +0.000 A 
ATOM     34  C   UNL     1      60.912  62.027  65.249  0.00  0.00    +0.000 A 
ATOM     35  C   UNL     1      61.119  62.380  65.965  0.00  0.00    +0.000 A 
ATOM     36  C   UNL     1      64.067  65.510  71.172  0.00  0.00    +0.000 C 
ENDROOT
TORSDOF 0
ENDMDL
