MODEL 1
REMARK VINA RESULT:   -10.591      0.000      0.000
REMARK INTER + INTRA:         -10.591
REMARK INTER:                 -10.591
REMARK INTRA:                   0.000
REMARK UNBOUND:                 0.000
ROOT
REMARK  Name = vorinostat
REMARK                            x       y       z     vdW  Elec       q    Type
REMARK                         _______ _______ _______ _____ _____    ______ ____
ATOM      1  O   UNL     1      60.500  63.581  72.849  0.00  0.00    +0.000 OA
ATOM      2  N   UNL     1      60.901  63.578  72.128  0.00  0.00    +0.000 NA
ATOM      3  C   UNL     1      60.571  63.203  71.473  0.00  0.00    +0.000 C 
ATOM      4  O   UNL     1      59.837  62.829  71.538  0.00  0.00    +0.000 OA
ATOM      5  C   UNL     1      60.972  63.199  70.752  0.00  0.00    +0.000 C 
ATOM      6  C   UNL     1      60.641  62.824  70.097  0.00  0.00    +0.000 C 
ATOM      7  C   UNL     1      61.043  62.821  69.376  0.00  0.00    +0.000 C 
ATOM      8  C   UNL     1      60.712  62.445  68.721  0.00  0.00    +0.000 C 
ATOM      9  C   UNL     1      61.114  62.442  68.000  0.00  0.00    +0.000 C 
ATOM     10  C   UNL     1      60.783  62.067  67.344  0.00  0.00    +0.000 C 
ATOM     11  C   UNL     1      61.185  62.063  66.624  0.00  0.00    +0.000 C 
ATOM     12  O   UNL     1      61.918  62.436  66.559  0.00  0.00    +0.000 OA
ATOM     13  N   UNL     1      60.854  61.688  65.968  0.00  0.00    +0.000 NA
ATOM     14  C   UNL     1      61.256  61.685  65.247  0.00  0.00    +0.000 A 
ATOM     15  C   UNL     1      60.925  61.309  64.592  0.00  0.00    +0.000 A 
ATOM     16  C   UNL     1      61.326  61.306  63.872  0.00  0.00    +0.000 A 
ATOM     17  C   UNL     1      62.060  61.679  63.807  0.00  0.00    +0.000 A 
ATOM     18  C   UNL     1      62.391  62.055  64.463  0.00  0.00    +0.000 A 
ATOM     19  C   UNL     1      61.989  62.057  65.183  0.00  0.00    +0.000 A 
ENDROOT
TORSDOF 0
ENDMDL
MODEL 2
REMARK VINA RESULT:   -10.312      1.551      6.048
REMARK INTER + INTRA:         -10.312
REMARK INTER:                 -10.312
REMARK INTRA:                   0.000
REMARK UNBOUND:                 0.000
ROOT
REMARK  Name = vorinostat
REMARK                            x       y       z     vdW  Elec       q    Type
REMARK                         _______ _______ _______ _____ _____    ______ ____
ATOM      1  O   UNL     1      62.208  61.369  63.103  0.00  0.00    +0.000 OA
ATOM      2  N   UNL     1      62.383  61.686  63.845  0.00  0.00    +0.000 NA
ATOM      3  C   UNL     1      61.839  61.622  64.460  0.00  0.00    +0.000 C 
ATOM      4  O   UNL     1      61.117  61.240  64.336  0.00  0.00    +0.000 OA
ATOM      5  C   UNL     1      62.014  61.939  65.202  0.00  0.00    +0.000 C 
ATOM      6  C   UNL     1      61.470  61.875  65.818  0.00  0.00    +0.000 C 
ATOM      7  C   UNL     1      61.646  62.192  66.559  0.00  0.00    +0.000 C 
ATOM      8  C   UNL     1      61.102  62.128  67.175  0.00  0.00    +0.000 C 
ATOM      9  C   UNL     1      61.277  62.445  67.916  0.00  0.00    +0.000 C 
ATOM     10  C   UNL     1      60.733  62.381  68.532  0.00  0.00    +0.000 C 
ATOM     11  C   UNL     1      60.909  62.698  69.274  0.00  0.00    +0.000 C 
ATOM     12  O   UNL     1      61.630  63.079  69.398  0.00  0.00    +0.000 OA
ATOM     13  N   UNL     1      60.364  62.634  69.889  0.00  0.00    +0.000 NA
ATOM     14  C   UNL     1      60.540  62.951  70.631  0.00  0.00    +0.000 A 
ATOM     15  C   UNL     1      59.996  62.887  71.247  0.00  0.00    +0.000 A 
ATOM     16  C   UNL     1      60.172  63.203  71.987  0.00  0.00    +0.000 A 
ATOM     17  C   UNL     1      60.892  63.585  72.112  0.00  0.00    +0.000 A 
ATOM     18  C   UNL     1      61.438  63.649  71.496  0.00  0.00    +0.000 A 
ATOM     19  C   UNL     1      61.261  63.332  70.756  0.00  0.00    +0.000 A 
ENDROOT
TORSDOF 0
ENDMDL
MODEL 3
REMARK VINA RESULT:    -9.625      2.804      3.272
REMARK INTER + INTRA:          -9.625
REMARK INTER:                  -9.625
REMARK INTRA:                   0.000
REMARK UNBOUND:                 0.000
ROOT
REMARK  Name = vorinostat
REMARK                            x       y       z     vdW  Elec       q    Type
REMARK                         _______ _______ _______ _____ _____    ______ ____
ATOM      1  O   UNL     1      65.434  66.199  71.749  0.00  0.00    +0.000 OA
ATOM      2  N   UNL     1      65.220  65.781  71.070  0.00  0.00    +0.000 NA
ATOM      3  C   UNL     1      64.434  65.564  70.950  0.00  0.00    +0.000 C 
ATOM      4  O   UNL     1      63.860  65.765  71.510  0.00  0.00    +0.000 OA
ATOM      5  C   UNL     1      64.219  65.146  70.272  0.00  0.00    +0.000 C 
ATOM      6  C   UNL     1      63.433  64.929  70.152  0.00  0.00    +0.000 C 
ATOM      7  C   UNL     1      63.218  64.512  69.473  0.00  0.00    +0.000 C 
ATOM      8  C   UNL     1      62.432  64.294  69.353  0.00  0.00    +0.000 C 
ATOM      9  C   UNL     1      62.217  63.877  68.675  0.00  0.00    +0.000 C 
ATOM     10  C   UNL     1      61.431  63.660  68.555  0.00  0.00    +0.000 C 
ATOM     11  C   UNL     1      61.216  63.242  67.877  0.00  0.00    +0.000 C 
ATOM     12  O   UNL     1      61.789  63.042  67.318  0.00  0.00    +0.000 OA
ATOM     13  N   UNL     1      60.430  63.025  67.757  0.00  0.00    +0.000 NA
ATOM     14  C   UNL     1      60.215  62.607  67.078  0.00  0.00    +0.000 A 
ATOM     15  C   UNL     1      59.429  62.390  66.958  0.00  0.00    +0.000 A 
ATOM     16  C   UNL     1      59.215  61.973  66.280  0.00  0.00    +0.000 A 
ATOM     17  C   UNL     1      59.788  61.773  65.721  0.00  0.00    +0.000 A 
ATOM     18  C   UNL     1      60.575  61.989  65.841  0.00  0.00    +0.000 A 
ATOM     19  C   UNL     1      60.788  62.407  66.519  0.00  0.00    +0.000 A 
ENDROOT
TORSDOF 0
ENDMDL
MODEL 4
REMARK VINA RESULT:    -9.594      4.148      5.804
REMARK INTER + INTRA:          -9.594
REMARK INTER:                  -9.594
REMARK INTRA:                   0.000
REMARK UNBOUND:                 0.000
ROOT
REMARK  Name = vorinostat
REMARK                            x       y       z     vdW  Elec       q    Type
REMARK                         _______ _______ _______ _____ _____    ______ ____
ATOM      1  O   UNL     1      66.908  68.171  70.124  0.00  0.00    +0.000 OA
ATOM      2  N   UNL     1      66.375  67.629  69.804  0.00  0.00    +0.000 NA
ATOM      3  C   UNL     1      65.895  67.179  70.301  0.00  0.00    +0.000 C 
ATOM      4  O   UNL     1      65.947  67.272  71.120  0.00  0.00    +0.000 OA
ATOM      5  C   UNL     1      65.362  66.636  69.981  0.00  0.00    +0.000 C 
ATOM      6  C   UNL     1      64.882  66.187  70.478  0.00  0.00    +0.000 C 
ATOM      7  C   UNL     1      64.349  65.644  70.158  0.00  0.00    +0.000 C 
ATOM      8  C   UNL     1      63.869  65.195  70.656  0.00  0.00    +0.000 C 
ATOM      9  C   UNL     1      63.336  64.652  70.336  0.00  0.00    +0.000 C 
ATOM     10  C   UNL     1      62.855  64.203  70.833  0.00  0.00    +0.000 C 
ATOM     11  C   UNL     1      62.322  63.660  70.513  0.00  0.00    +0.000 C 
ATOM     12  O   UNL     1      62.270  63.567  69.695  0.00  0.00    +0.000 OA
ATOM     13  N   UNL     1      61.842  63.211  71.010  0.00  0.00    +0.000 NA
ATOM     14  C   UNL     1      61.309  62.668  70.690  0.00  0.00    +0.000 A 
ATOM     15  C   UNL     1      60.829  62.219  71.187  0.00  0.00    +0.000 A 
ATOM     16  C   UNL     1      60.297  61.677  70.867  0.00  0.00    +0.000 A 
ATOM     17  C   UNL     1      60.245  61.584  70.049  0.00  0.00    +0.000 A 
ATOM     18  C   UNL     1      60.725  62.033  69.551  0.00  0.00    +0.000 A 
ATOM     19  C   UNL     1      61.257  62.575  69.872  0.00  0.00    +0.000 A 
ENDROOT
TORSDOF 0
ENDMDL
MODEL 5
REMARK VINA RESULT:    -9.138      2.317      5.997
REMARK INTER + INTRA:          -9.138
REMARK INTER:                  -9.138
REMARK INTRA:                   0.000
REMARK UNBOUND:                 0.000
ROOT
REMARK  Name = vorinostat
REMARK                            x       y       z     vdW  Elec       q    Type
REMARK                         _______ _______ _______ _____ _____    ______ ____
ATOM      1  O   UNL     1      60.505  60.868  64.078  0.00  0.00    +0.000 OA
ATOM      2  N   UNL     1      61.050  61.237  64.576  0.00  0.00    +0.000 NA
ATOM      3  C   UNL     1      60.794  61.612  65.264  0.00  0.00    +0.000 C 
ATOM      4  O   UNL     1      59.991  61.619  65.456  0.00  0.00    +0.000 OA
ATOM      5  C   UNL     1      61.339  61.981  65.761  0.00  0.00    +0.000 C 
ATOM      6  C   UNL     1      61.083  62.356  66.449  0.00  0.00    +0.000 C 
ATOM      7  C   UNL     1      61.628  62.725  66.947  0.00  0.00    +0.000 C 
ATOM      8  C   UNL     1      61.372  63.100  67.635  0.00  0.00    +0.000 C 
ATOM      9  C   UNL     1      61.917  63.469  68.132  0.00  0.00    +0.000 C 
ATOM     10  C   UNL     1      61.661  63.843  68.820  0.00  0.00    +0.000 C 
ATOM     11  C   UNL     1      62.206  64.212  69.318  0.00  0.00    +0.000 C 
ATOM     12  O   UNL     1      63.009  64.206  69.126  0.00  0.00    +0.000 OA
ATOM     13  N   UNL     1      61.950  64.587  70.006  0.00  0.00    +0.000 NA
ATOM     14  C   UNL     1      62.495  64.956  70.503  0.00  0.00    +0.000 A 
ATOM     15  C   UNL     1      62.239  65.331  71.191  0.00  0.00    +0.000 A 
ATOM     16  C   UNL     1      62.784  65.699  71.688  0.00  0.00    +0.000 A 
ATOM     17  C   UNL     1      63.586  65.693  71.496  0.00  0.00    +0.000 A 
ATOM     18  C   UNL     1      63.844  65.318  70.808  0.00  0.00    +0.000 A 
ATOM     19  C   UNL     1      63.298  64.950  70.312  0.00  0.00    +0.000 A 
ENDROOT
TORSDOF 0
ENDMDL
MODEL 6
REMARK VINA RESULT:    -8.981      4.813      6.836
REMARK INTER + INTRA:          -8.981
REMARK INTER:                  -8.981
REMARK INTRA:                   0.000
REMARK UNBOUND:                 0.000
ROOT
REMARK  Name = vorinostat
REMARK                            x       y       z     vdW  Elec       q    Type
REMARK                         _______ _______ _______ _____ _____    ______ ____
ATOM      1  O   UNL     1      67.535  68.356  69.584  0.00  0.00    +0.000 OA
ATOM      2  N   UNL     1      66.774  68.058  69.473  0.00  0.00    +0.000 NA
ATOM      3  C   UNL     1      66.451  67.534  70.022  0.00  0.00    +0.000 C 
ATOM      4  O   UNL     1      66.891  67.307  70.683  0.00  0.00    +0.000 OA
ATOM      5  C   UNL     1      65.690  67.236  69.910  0.00  0.00    +0.000 C 
ATOM      6  C   UNL     1      65.367  66.713  70.459  0.00  0.00    +0.000 C 
ATOM      7  C   UNL     1      64.606  66.415  70.348  0.00  0.00    +0.000 C 
ATOM      8  C   UNL     1      64.283  65.891  70.897  0.00  0.00    +0.000 C 
ATOM      9  C   UNL     1      63.522  65.593  70.785  0.00  0.00    +0.000 C 
ATOM     10  C   UNL     1      63.199  65.069  71.334  0.00  0.00    +0.000 C 
ATOM     11  C   UNL     1      62.438  64.771  71.223  0.00  0.00    +0.000 C 
ATOM     12  O   UNL     1      61.999  64.998  70.562  0.00  0.00    +0.000 OA
ATOM     13  N   UNL     1      62.115  64.247  71.772  0.00  0.00    +0.000 NA
ATOM     14  C   UNL     1      61.354  63.949  71.660  0.00  0.00    +0.000 A 
ATOM     15  C   UNL     1      61.031  63.425  72.209  0.00  0.00    +0.000 A 
ATOM     16  C   UNL     1      60.270  63.128  72.098  0.00  0.00    +0.000 A 
ATOM     17  C   UNL     1      59.832  63.355  71.437  0.00  0.00    +0.000 A 
ATOM     18  C   UNL     1      60.154  63.879  70.887  0.00  0.00    +0.000 A 
ATOM     19  C   UNL     1      60.915  64.176  70.999  0.00  0.00    +0.000 A 
ENDROOT
TORSDOF 0
ENDMDL
MODEL 7
REMARK VINA RESULT:    -8.510      4.297      6.072
REMARK INTER + INTRA:          -8.510
REMARK INTER:                  -8.510
REMARK INTRA:                   0.000
REMARK UNBOUND:                 0.000
ROOT
REMARK  Name = vorinostat
REMARK                            x       y       z     vdW  Elec       q    Type
REMARK                         _______ _______ _______ _____ _____    ______ ____
ATOM      1  O   UNL     1      63.698  69.876  73.222  0.00  0.00    +0.000 OA
ATOM      2  N   UNL     1      63.136  69.276  73.160  0.00  0.00    +0.000 NA
ATOM      3  C   UNL     1      63.337  68.556  72.813  0.00  0.00    +0.000 C 
ATOM      4  O   UNL     1      64.103  68.435  72.528  0.00  0.00    +0.000 OA
ATOM      5  C   UNL     1      62.775  67.955  72.751  0.00  0.00    +0.000 C 
ATOM      6  C   UNL     1      62.976  67.235  72.404  0.00  0.00    +0.000 C 
ATOM      7  C   UNL     1      62.413  66.634  72.341  0.00  0.00    +0.000 C 
ATOM      8  C   UNL     1      62.615  65.914  71.995  0.00  0.00    +0.000 C 
ATOM      9  C   UNL     1      62.052  65.314  71.932  0.00  0.00    +0.000 C 
ATOM     10  C   UNL     1      62.254  64.594  71.586  0.00  0.00    +0.000 C 
ATOM     11  C   UNL     1      61.691  63.993  71.523  0.00  0.00    +0.000 C 
ATOM     12  O   UNL     1      60.926  64.114  71.808  0.00  0.00    +0.000 OA
ATOM     13  N   UNL     1      61.893  63.273  71.177  0.00  0.00    +0.000 NA
ATOM     14  C   UNL     1      61.330  62.672  71.114  0.00  0.00    +0.000 A 
ATOM     15  C   UNL     1      61.532  61.952  70.767  0.00  0.00    +0.000 A 
ATOM     16  C   UNL     1      60.969  61.353  70.705  0.00  0.00    +0.000 A 
ATOM     17  C   UNL     1      60.205  61.474  70.990  0.00  0.00    +0.000 A 
ATOM     18  C   UNL     1      60.002  62.194  71.337  0.00  0.00    +0.000 A 
ATOM     19  C   UNL     1      60.565  62.793  71.399  0.00  0.00    +0.000 A 
ENDROOT
TORSDOF 0
ENDMDL
MODEL 8
REMARK VINA RESULT:    -8.401     24.209     25.531
REMARK INTER + INTRA:          -8.401
REMARK INTER:                  -8.401
REMARK INTRA:                   0.000
REMARK UNBOUND:                 0.000
ROOT
REMARK  Name = vorinostat
REMARK                            x       y       z     vdW  Elec       q    Type
REMARK                         _______ _______ _______ _____ _____    ______ ____
ATOM      1  O   UNL     1      66.649  82.035  55.705  0.00  0.00    +0.000 OA
ATOM      2  N   UNL     1      66.794  81.555  55.050  0.00  0.00    +0.000 NA
ATOM      3  C   UNL     1      67.507  81.618  54.641  0.00  0.00    +0.000 C 
ATOM      4  O   UNL     1      68.077  82.162  54.887  0.00  0.00    +0.000 OA
ATOM      5  C   UNL     1      67.651  81.137  53.986  0.00  0.00    +0.000 C 
ATOM      6  C   UNL     1      68.365  81.200  53.577  0.00  0.00    +0.000 C 
ATOM      7  C   UNL     1      68.509  80.719  52.922  0.00  0.00    +0.000 C 
ATOM      8  C   UNL     1      69.222  80.782  52.513  0.00  0.00    +0.000 C 
ATOM      9  C   UNL     1      69.367  80.301  51.858  0.00  0.00    +0.000 C 
ATOM     10  C   UNL     1      70.080  80.364  51.449  0.00  0.00    +0.000 C 
ATOM     11  C   UNL     1      70.225  79.884  50.794  0.00  0.00    +0.000 C 
ATOM     12  O   UNL     1      69.655  79.340  50.548  0.00  0.00    +0.000 OA
ATOM     13  N   UNL     1      70.938  79.946  50.386  0.00  0.00    +0.000 NA
ATOM     14  C   UNL     1      71.082  79.466  49.730  0.00  0.00    +0.000 A 
ATOM     15  C   UNL     1      71.795  79.528  49.322  0.00  0.00    +0.000 A 
ATOM     16  C   UNL     1      71.939  79.048  48.667  0.00  0.00    +0.000 A 
ATOM     17  C   UNL     1      71.370  78.505  48.421  0.00  0.00    +0.000 A 
ATOM     18  C   UNL     1      70.656  78.441  48.830  0.00  0.00    +0.000 A 
ATOM     19  C   UNL     1      70.512  78.922  49.485  0.00  0.00    +0.000 A 
ENDROOT
TORSDOF 0
ENDMDL
MODEL 9
REMARK VINA RESULT:    -7.608     14.041     14.822
REMARK INTER + INTRA:          -7.608
REMARK INTER:                  -7.608
REMARK INTRA:                   0.000
REMARK UNBOUND:                 0.000
ROOT
REMARK  Name = vorinostat
REMARK                            x       y       z     vdW  Elec       q    Type
REMARK                         _______ _______ _______ _____ _____    ______ ____
ATOM      1  O   UNL     1      63.384  60.664  53.636  0.00  0.00    +0.000 OA
ATOM      2  N   UNL     1      63.486  61.400  53.995  0.00  0.00    +0.000 NA
ATOM      3  C   UNL     1      63.031  62.044  53.754  0.00  0.00    +0.000 C 
ATOM      4  O   UNL     1      62.471  61.952  53.154  0.00  0.00    +0.000 OA
ATOM      5  C   UNL     1      63.133  62.780  54.113  0.00  0.00    +0.000 C 
ATOM      6  C   UNL     1      62.677  63.423  53.872  0.00  0.00    +0.000 C 
ATOM      7  C   UNL     1      62.779  64.159  54.231  0.00  0.00    +0.000 C 
ATOM      8  C   UNL     1      62.324  64.803  53.990  0.00  0.00    +0.000 C 
ATOM      9  C   UNL     1      62.426  65.539  54.349  0.00  0.00    +0.000 C 
ATOM     10  C   UNL     1      61.970  66.182  54.109  0.00  0.00    +0.000 C 
ATOM     11  C   UNL     1      62.073  66.918  54.467  0.00  0.00    +0.000 C 
ATOM     12  O   UNL     1      62.632  67.010  55.067  0.00  0.00    +0.000 OA
ATOM     13  N   UNL     1      61.617  67.562  54.227  0.00  0.00    +0.000 NA
ATOM     14  C   UNL     1      61.719  68.298  54.585  0.00  0.00    +0.000 A 
ATOM     15  C   UNL     1      61.263  68.941  54.345  0.00  0.00    +0.000 A 
ATOM     16  C   UNL     1      61.366  69.676  54.703  0.00  0.00    +0.000 A 
ATOM     17  C   UNL     1      61.925  69.768  55.303  0.00  0.00    +0.000 A 
ATOM     18  C   UNL     1      62.381  69.125  55.544  0.00  0.00    +0.000 A 
ATOM     19  C   UNL     1      62.278  68.390  55.185  0.00  0.00    +0.000 A 
ENDROOT
TORSDOF 0
ENDMDL
