MODEL 1
REMARK VINA RESULT:   -11.462      0.000      0.000
REMARK INTER + INTRA:         -11.462
REMARK INTER:                 -11.462
REMARK INTRA:                   0.000
REMARK UNBOUND:                 0.000
ROOT
REMARK  Name = warfarin
REMARK                            x       y       z     vdW  Elec       q    Type
REMARK                         _______ _______ _______ _____ _____    ______ ____
ATOM      1  C   UNL     1      60.426  61.336  70.202  0.00  0.00    +0.000 C 
ATOM      2  C   UNL     1      60.463  62.037  69.770  0.00  0.00    +0.000 C 
ATOM      3  O   UNL     1      60.258  62.753  70.126  0.00  0.00    +0.000 OA
ATOM      4  C   UNL     1      60.705  62.024  68.981  0.00  0.00    +0.000 C 
ATOM      5  C   UNL     1      60.742  62.726  68.549  0.00  0.00    +0.000 C 
ATOM      6  C   UNL     1      60.537  63.441  68.906  0.00  0.00    +0.000 A 
ATOM      7  C   UNL     1      60.573  64.144  68.474  0.00  0.00    +0.000 A 
ATOM      8  C   UNL     1      60.369  64.858  68.830  0.00  0.00    +0.000 A 
ATOM      9  C   UNL     1      60.127  64.872  69.618  0.00  0.00    +0.000 A 
ATOM     10  C   UNL     1      60.090  64.169  70.051  0.00  0.00    +0.000 A 
ATOM     11  C   UNL     1      60.295  63.454  69.694  0.00  0.00    +0.000 A 
ATOM     12  C   UNL     1      60.983  62.712  67.760  0.00  0.00    +0.000 A 
ATOM     13  C   UNL     1      61.188  61.998  67.404  0.00  0.00    +0.000 A 
ATOM     14  O   UNL     1      61.151  61.296  67.836  0.00  0.00    +0.000 OA
ATOM     15  C   UNL     1      61.430  61.984  66.616  0.00  0.00    +0.000 A 
ATOM     16  C   UNL     1      61.635  61.269  66.258  0.00  0.00    +0.000 A 
ATOM     17  C   UNL     1      61.876  61.256  65.470  0.00  0.00    +0.000 A 
ATOM     18  C   UNL     1      61.913  61.959  65.038  0.00  0.00    +0.000 A 
ATOM     19  C   UNL     1      61.709  62.673  65.394  0.00  0.00    +0.000 A 
ATOM     20  C   UNL     1      61.467  62.687  66.183  0.00  0.00    +0.000 A 
ATOM     21  O   UNL     1      61.262  63.401  66.540  0.00  0.00    +0.000 OA
ATOM     22  C   UNL     1      61.020  63.415  67.328  0.00  0.00    +0.000 A 
ATOM     23  O   UNL     1      60.815  64.130  67.685  0.00  0.00    +0.000 OA
ENDROOT
TORSDOF 0
ENDMDL
MODEL 2
REMARK VINA RESULT:   -11.448      1.699      4.380
REMARK INTER + INTRA:         -11.448
REMARK INTER:                 -11.448
REMARK INTRA:                   0.000
REMARK UNBOUND:                 0.000
ROOT
REMARK  Name = warfarin
REMARK                            x       y       z     vdW  Elec       q    Type
REMARK                         _______ _______ _______ _____ _____    ______ ____
ATOM      1  C   UNL     1      59.825  65.460  69.254  0.00  0.00    +0.000 C 
ATOM      2  C   UNL     1      59.998  64.657  69.199  0.00  0.00    +0.000 C 
ATOM      3  O   UNL     1      59.879  64.256  68.488  0.00  0.00    +0.000 OA
ATOM      4  C   UNL     1      60.292  64.251  69.856  0.00  0.00    +0.000 C 
ATOM      5  C   UNL     1      60.466  63.447  69.801  0.00  0.00    +0.000 C 
ATOM      6  C   UNL     1      60.346  63.047  69.088  0.00  0.00    +0.000 A 
ATOM      7  C   UNL     1      60.520  62.242  69.033  0.00  0.00    +0.000 A 
ATOM      8  C   UNL     1      60.401  61.842  68.322  0.00  0.00    +0.000 A 
ATOM      9  C   UNL     1      60.108  62.247  67.666  0.00  0.00    +0.000 A 
ATOM     10  C   UNL     1      59.934  63.052  67.721  0.00  0.00    +0.000 A 
ATOM     11  C   UNL     1      60.053  63.452  68.433  0.00  0.00    +0.000 A 
ATOM     12  C   UNL     1      60.759  63.042  70.458  0.00  0.00    +0.000 A 
ATOM     13  C   UNL     1      60.878  63.442  71.169  0.00  0.00    +0.000 A 
ATOM     14  O   UNL     1      60.704  64.246  71.224  0.00  0.00    +0.000 OA
ATOM     15  C   UNL     1      61.171  63.037  71.825  0.00  0.00    +0.000 A 
ATOM     16  C   UNL     1      61.291  63.437  72.537  0.00  0.00    +0.000 A 
ATOM     17  C   UNL     1      61.584  63.032  73.193  0.00  0.00    +0.000 A 
ATOM     18  C   UNL     1      61.758  62.227  73.137  0.00  0.00    +0.000 A 
ATOM     19  C   UNL     1      61.638  61.828  72.426  0.00  0.00    +0.000 A 
ATOM     20  C   UNL     1      61.345  62.232  71.769  0.00  0.00    +0.000 A 
ATOM     21  O   UNL     1      61.226  61.833  71.058  0.00  0.00    +0.000 OA
ATOM     22  C   UNL     1      60.933  62.237  70.402  0.00  0.00    +0.000 A 
ATOM     23  O   UNL     1      60.813  61.838  69.690  0.00  0.00    +0.000 OA
ENDROOT
TORSDOF 0
ENDMDL
MODEL 3
REMARK VINA RESULT:   -11.403      0.674      2.026
REMARK INTER + INTRA:         -11.403
REMARK INTER:                 -11.403
REMARK INTRA:                   0.000
REMARK UNBOUND:                 0.000
ROOT
REMARK  Name = warfarin
REMARK                            x       y       z     vdW  Elec       q    Type
REMARK                         _______ _______ _______ _____ _____    ______ ____
ATOM      1  C   UNL     1      60.119  65.322  69.283  0.00  0.00    +0.000 C 
ATOM      2  C   UNL     1      60.240  64.513  69.379  0.00  0.00    +0.000 C 
ATOM      3  O   UNL     1      60.103  64.159  70.111  0.00  0.00    +0.000 OA
ATOM      4  C   UNL     1      60.499  64.056  68.741  0.00  0.00    +0.000 C 
ATOM      5  C   UNL     1      60.620  63.245  68.837  0.00  0.00    +0.000 C 
ATOM      6  C   UNL     1      60.482  62.892  69.570  0.00  0.00    +0.000 A 
ATOM      7  C   UNL     1      60.604  62.081  69.666  0.00  0.00    +0.000 A 
ATOM      8  C   UNL     1      60.466  61.727  70.399  0.00  0.00    +0.000 A 
ATOM      9  C   UNL     1      60.208  62.184  71.035  0.00  0.00    +0.000 A 
ATOM     10  C   UNL     1      60.087  62.995  70.939  0.00  0.00    +0.000 A 
ATOM     11  C   UNL     1      60.224  63.348  70.207  0.00  0.00    +0.000 A 
ATOM     12  C   UNL     1      60.879  62.789  68.200  0.00  0.00    +0.000 A 
ATOM     13  C   UNL     1      61.016  63.142  67.468  0.00  0.00    +0.000 A 
ATOM     14  O   UNL     1      60.895  63.953  67.372  0.00  0.00    +0.000 OA
ATOM     15  C   UNL     1      61.274  62.686  66.832  0.00  0.00    +0.000 A 
ATOM     16  C   UNL     1      61.412  63.039  66.099  0.00  0.00    +0.000 A 
ATOM     17  C   UNL     1      61.670  62.583  65.463  0.00  0.00    +0.000 A 
ATOM     18  C   UNL     1      61.791  61.772  65.559  0.00  0.00    +0.000 A 
ATOM     19  C   UNL     1      61.654  61.419  66.291  0.00  0.00    +0.000 A 
ATOM     20  C   UNL     1      61.395  61.875  66.928  0.00  0.00    +0.000 A 
ATOM     21  O   UNL     1      61.258  61.522  67.660  0.00  0.00    +0.000 OA
ATOM     22  C   UNL     1      61.000  61.978  68.296  0.00  0.00    +0.000 A 
ATOM     23  O   UNL     1      60.862  61.624  69.029  0.00  0.00    +0.000 OA
ENDROOT
TORSDOF 0
ENDMDL
MODEL 4
REMARK VINA RESULT:   -11.250      3.934      5.466
REMARK INTER + INTRA:         -11.250
REMARK INTER:                 -11.250
REMARK INTRA:                   0.000
REMARK UNBOUND:                 0.000
ROOT
REMARK  Name = warfarin
REMARK                            x       y       z     vdW  Elec       q    Type
REMARK                         _______ _______ _______ _____ _____    ______ ____
ATOM      1  C   UNL     1      63.509  67.375  72.421  0.00  0.00    +0.000 C 
ATOM      2  C   UNL     1      63.624  66.804  71.837  0.00  0.00    +0.000 C 
ATOM      3  O   UNL     1      64.164  66.938  71.229  0.00  0.00    +0.000 OA
ATOM      4  C   UNL     1      63.198  66.097  71.862  0.00  0.00    +0.000 C 
ATOM      5  C   UNL     1      63.312  65.526  71.278  0.00  0.00    +0.000 C 
ATOM      6  C   UNL     1      63.853  65.661  70.670  0.00  0.00    +0.000 A 
ATOM      7  C   UNL     1      63.968  65.089  70.085  0.00  0.00    +0.000 A 
ATOM      8  C   UNL     1      64.508  65.223  69.478  0.00  0.00    +0.000 A 
ATOM      9  C   UNL     1      64.934  65.929  69.453  0.00  0.00    +0.000 A 
ATOM     10  C   UNL     1      64.819  66.501  70.037  0.00  0.00    +0.000 A 
ATOM     11  C   UNL     1      64.279  66.366  70.645  0.00  0.00    +0.000 A 
ATOM     12  C   UNL     1      62.886  64.819  71.303  0.00  0.00    +0.000 A 
ATOM     13  C   UNL     1      62.346  64.685  71.911  0.00  0.00    +0.000 A 
ATOM     14  O   UNL     1      62.231  65.256  72.495  0.00  0.00    +0.000 OA
ATOM     15  C   UNL     1      61.920  63.979  71.936  0.00  0.00    +0.000 A 
ATOM     16  C   UNL     1      61.379  63.844  72.544  0.00  0.00    +0.000 A 
ATOM     17  C   UNL     1      60.953  63.139  72.569  0.00  0.00    +0.000 A 
ATOM     18  C   UNL     1      61.068  62.566  71.985  0.00  0.00    +0.000 A 
ATOM     19  C   UNL     1      61.608  62.701  71.377  0.00  0.00    +0.000 A 
ATOM     20  C   UNL     1      62.035  63.407  71.352  0.00  0.00    +0.000 A 
ATOM     21  O   UNL     1      62.575  63.542  70.744  0.00  0.00    +0.000 OA
ATOM     22  C   UNL     1      63.001  64.247  70.719  0.00  0.00    +0.000 A 
ATOM     23  O   UNL     1      63.542  64.382  70.111  0.00  0.00    +0.000 OA
ENDROOT
TORSDOF 0
ENDMDL
MODEL 5
REMARK VINA RESULT:   -11.246      2.020      3.658
REMARK INTER + INTRA:         -11.246
REMARK INTER:                 -11.246
REMARK INTRA:                   0.000
REMARK UNBOUND:                 0.000
ROOT
REMARK  Name = warfarin
REMARK                            x       y       z     vdW  Elec       q    Type
REMARK                         _______ _______ _______ _____ _____    ______ ____
ATOM      1  C   UNL     1      60.294  61.625  70.957  0.00  0.00    +0.000 C 
ATOM      2  C   UNL     1      60.544  62.026  70.282  0.00  0.00    +0.000 C 
ATOM      3  O   UNL     1      60.262  61.802  69.540  0.00  0.00    +0.000 OA
ATOM      4  C   UNL     1      61.079  62.652  70.347  0.00  0.00    +0.000 C 
ATOM      5  C   UNL     1      61.330  63.053  69.671  0.00  0.00    +0.000 C 
ATOM      6  C   UNL     1      61.046  62.827  68.930  0.00  0.00    +0.000 A 
ATOM      7  C   UNL     1      61.297  63.229  68.253  0.00  0.00    +0.000 A 
ATOM      8  C   UNL     1      61.014  63.004  67.512  0.00  0.00    +0.000 A 
ATOM      9  C   UNL     1      60.480  62.379  67.446  0.00  0.00    +0.000 A 
ATOM     10  C   UNL     1      60.229  61.978  68.123  0.00  0.00    +0.000 A 
ATOM     11  C   UNL     1      60.512  62.202  68.864  0.00  0.00    +0.000 A 
ATOM     12  C   UNL     1      61.864  63.678  69.738  0.00  0.00    +0.000 A 
ATOM     13  C   UNL     1      62.147  63.903  70.479  0.00  0.00    +0.000 A 
ATOM     14  O   UNL     1      61.896  63.502  71.155  0.00  0.00    +0.000 OA
ATOM     15  C   UNL     1      62.680  64.528  70.544  0.00  0.00    +0.000 A 
ATOM     16  C   UNL     1      62.964  64.753  71.286  0.00  0.00    +0.000 A 
ATOM     17  C   UNL     1      63.497  65.378  71.351  0.00  0.00    +0.000 A 
ATOM     18  C   UNL     1      63.748  65.779  70.674  0.00  0.00    +0.000 A 
ATOM     19  C   UNL     1      63.465  65.555  69.934  0.00  0.00    +0.000 A 
ATOM     20  C   UNL     1      62.931  64.929  69.867  0.00  0.00    +0.000 A 
ATOM     21  O   UNL     1      62.648  64.704  69.126  0.00  0.00    +0.000 OA
ATOM     22  C   UNL     1      62.115  64.079  69.061  0.00  0.00    +0.000 A 
ATOM     23  O   UNL     1      61.831  63.854  68.319  0.00  0.00    +0.000 OA
ENDROOT
TORSDOF 0
ENDMDL
MODEL 6
REMARK VINA RESULT:   -11.119      4.183      5.513
REMARK INTER + INTRA:         -11.119
REMARK INTER:                 -11.119
REMARK INTRA:                   0.000
REMARK UNBOUND:                 0.000
ROOT
REMARK  Name = warfarin
REMARK                            x       y       z     vdW  Elec       q    Type
REMARK                         _______ _______ _______ _____ _____    ______ ____
ATOM      1  C   UNL     1      62.353  63.873  69.130  0.00  0.00    +0.000 C 
ATOM      2  C   UNL     1      62.413  64.236  69.867  0.00  0.00    +0.000 C 
ATOM      3  O   UNL     1      61.887  64.036  70.470  0.00  0.00    +0.000 OA
ATOM      4  C   UNL     1      62.999  64.802  70.002  0.00  0.00    +0.000 C 
ATOM      5  C   UNL     1      63.059  65.166  70.740  0.00  0.00    +0.000 C 
ATOM      6  C   UNL     1      62.532  64.964  71.343  0.00  0.00    +0.000 A 
ATOM      7  C   UNL     1      62.592  65.329  72.081  0.00  0.00    +0.000 A 
ATOM      8  C   UNL     1      62.067  65.128  72.684  0.00  0.00    +0.000 A 
ATOM      9  C   UNL     1      61.481  64.563  72.549  0.00  0.00    +0.000 A 
ATOM     10  C   UNL     1      61.421  64.199  71.810  0.00  0.00    +0.000 A 
ATOM     11  C   UNL     1      61.947  64.400  71.208  0.00  0.00    +0.000 A 
ATOM     12  C   UNL     1      63.645  65.731  70.874  0.00  0.00    +0.000 A 
ATOM     13  C   UNL     1      64.170  65.932  70.272  0.00  0.00    +0.000 A 
ATOM     14  O   UNL     1      64.111  65.568  69.534  0.00  0.00    +0.000 OA
ATOM     15  C   UNL     1      64.756  66.497  70.406  0.00  0.00    +0.000 A 
ATOM     16  C   UNL     1      65.282  66.698  69.804  0.00  0.00    +0.000 A 
ATOM     17  C   UNL     1      65.868  67.263  69.938  0.00  0.00    +0.000 A 
ATOM     18  C   UNL     1      65.928  67.627  70.677  0.00  0.00    +0.000 A 
ATOM     19  C   UNL     1      65.402  67.426  71.280  0.00  0.00    +0.000 A 
ATOM     20  C   UNL     1      64.816  66.861  71.145  0.00  0.00    +0.000 A 
ATOM     21  O   UNL     1      64.290  66.660  71.748  0.00  0.00    +0.000 OA
ATOM     22  C   UNL     1      63.705  66.095  71.613  0.00  0.00    +0.000 A 
ATOM     23  O   UNL     1      63.179  65.894  72.216  0.00  0.00    +0.000 OA
ENDROOT
TORSDOF 0
ENDMDL
MODEL 7
REMARK VINA RESULT:   -11.037      2.171      2.779
REMARK INTER + INTRA:         -11.037
REMARK INTER:                 -11.037
REMARK INTRA:                   0.000
REMARK UNBOUND:                 0.000
ROOT
REMARK  Name = warfarin
REMARK                            x       y       z     vdW  Elec       q    Type
REMARK                         _______ _______ _______ _____ _____    ______ ____
ATOM      1  C   UNL     1      61.291  63.294  72.558  0.00  0.00    +0.000 C 
ATOM      2  C   UNL     1      61.680  63.646  71.922  0.00  0.00    +0.000 C 
ATOM      3  O   UNL     1      62.252  64.226  72.057  0.00  0.00    +0.000 OA
ATOM      4  C   UNL     1      61.498  63.420  71.150  0.00  0.00    +0.000 C 
ATOM      5  C   UNL     1      61.887  63.772  70.513  0.00  0.00    +0.000 C 
ATOM      6  C   UNL     1      62.459  64.351  70.650  0.00  0.00    +0.000 A 
ATOM      7  C   UNL     1      62.849  64.704  70.013  0.00  0.00    +0.000 A 
ATOM      8  C   UNL     1      63.420  65.283  70.149  0.00  0.00    +0.000 A 
ATOM      9  C   UNL     1      63.602  65.510  70.920  0.00  0.00    +0.000 A 
ATOM     10  C   UNL     1      63.212  65.157  71.557  0.00  0.00    +0.000 A 
ATOM     11  C   UNL     1      62.641  64.578  71.421  0.00  0.00    +0.000 A 
ATOM     12  C   UNL     1      61.705  63.545  69.742  0.00  0.00    +0.000 A 
ATOM     13  C   UNL     1      61.134  62.966  69.606  0.00  0.00    +0.000 A 
ATOM     14  O   UNL     1      60.744  62.613  70.242  0.00  0.00    +0.000 OA
ATOM     15  C   UNL     1      60.951  62.739  68.834  0.00  0.00    +0.000 A 
ATOM     16  C   UNL     1      60.380  62.160  68.698  0.00  0.00    +0.000 A 
ATOM     17  C   UNL     1      60.198  61.933  67.927  0.00  0.00    +0.000 A 
ATOM     18  C   UNL     1      60.587  62.286  67.290  0.00  0.00    +0.000 A 
ATOM     19  C   UNL     1      61.158  62.864  67.425  0.00  0.00    +0.000 A 
ATOM     20  C   UNL     1      61.341  63.092  68.197  0.00  0.00    +0.000 A 
ATOM     21  O   UNL     1      61.912  63.671  68.333  0.00  0.00    +0.000 OA
ATOM     22  C   UNL     1      62.094  63.897  69.104  0.00  0.00    +0.000 A 
ATOM     23  O   UNL     1      62.666  64.477  69.241  0.00  0.00    +0.000 OA
ENDROOT
TORSDOF 0
ENDMDL
MODEL 8
REMARK VINA RESULT:   -10.968      4.463      6.038
REMARK INTER + INTRA:         -10.968
REMARK INTER:                 -10.968
REMARK INTRA:                   0.000
REMARK UNBOUND:                 0.000
ROOT
REMARK  Name = warfarin
REMARK                            x       y       z     vdW  Elec       q    Type
REMARK                         _______ _______ _______ _____ _____    ______ ____
ATOM      1  C   UNL     1      64.920  66.342  70.902  0.00  0.00    +0.000 C 
ATOM      2  C   UNL     1      64.278  66.534  71.382  0.00  0.00    +0.000 C 
ATOM      3  O   UNL     1      64.219  67.289  71.710  0.00  0.00    +0.000 OA
ATOM      4  C   UNL     1      63.694  65.971  71.535  0.00  0.00    +0.000 C 
ATOM      5  C   UNL     1      63.052  66.164  72.016  0.00  0.00    +0.000 C 
ATOM      6  C   UNL     1      62.994  66.919  72.344  0.00  0.00    +0.000 A 
ATOM      7  C   UNL     1      62.351  67.111  72.825  0.00  0.00    +0.000 A 
ATOM      8  C   UNL     1      62.293  67.866  73.152  0.00  0.00    +0.000 A 
ATOM      9  C   UNL     1      62.876  68.428  73.000  0.00  0.00    +0.000 A 
ATOM     10  C   UNL     1      63.519  68.235  72.518  0.00  0.00    +0.000 A 
ATOM     11  C   UNL     1      63.577  67.481  72.191  0.00  0.00    +0.000 A 
ATOM     12  C   UNL     1      62.468  65.601  72.169  0.00  0.00    +0.000 A 
ATOM     13  C   UNL     1      62.526  64.846  71.841  0.00  0.00    +0.000 A 
ATOM     14  O   UNL     1      63.168  64.654  71.360  0.00  0.00    +0.000 OA
ATOM     15  C   UNL     1      61.943  64.284  71.994  0.00  0.00    +0.000 A 
ATOM     16  C   UNL     1      62.001  63.529  71.666  0.00  0.00    +0.000 A 
ATOM     17  C   UNL     1      61.418  62.967  71.819  0.00  0.00    +0.000 A 
ATOM     18  C   UNL     1      60.775  63.159  72.300  0.00  0.00    +0.000 A 
ATOM     19  C   UNL     1      60.716  63.913  72.628  0.00  0.00    +0.000 A 
ATOM     20  C   UNL     1      61.300  64.477  72.475  0.00  0.00    +0.000 A 
ATOM     21  O   UNL     1      61.242  65.231  72.803  0.00  0.00    +0.000 OA
ATOM     22  C   UNL     1      61.825  65.793  72.650  0.00  0.00    +0.000 A 
ATOM     23  O   UNL     1      61.767  66.548  72.978  0.00  0.00    +0.000 OA
ENDROOT
TORSDOF 0
ENDMDL
MODEL 9
REMARK VINA RESULT:   -10.962      4.104      5.441
REMARK INTER + INTRA:         -10.962
REMARK INTER:                 -10.962
REMARK INTRA:                   0.000
REMARK UNBOUND:                 0.000
ROOT
REMARK  Name = warfarin
REMARK                            x       y       z     vdW  Elec       q    Type
REMARK                         _______ _______ _______ _____ _____    ______ ____
ATOM      1  C   UNL     1      61.841  65.133  72.844  0.00  0.00    +0.000 C 
ATOM      2  C   UNL     1      62.101  65.007  72.072  0.00  0.00    +0.000 C 
ATOM      3  O   UNL     1      61.714  64.461  71.590  0.00  0.00    +0.000 OA
ATOM      4  C   UNL     1      62.749  65.428  71.781  0.00  0.00    +0.000 C 
ATOM      5  C   UNL     1      63.010  65.302  71.009  0.00  0.00    +0.000 C 
ATOM      6  C   UNL     1      62.622  64.755  70.527  0.00  0.00    +0.000 A 
ATOM      7  C   UNL     1      62.883  64.629  69.754  0.00  0.00    +0.000 A 
ATOM      8  C   UNL     1      62.496  64.083  69.272  0.00  0.00    +0.000 A 
ATOM      9  C   UNL     1      61.848  63.663  69.563  0.00  0.00    +0.000 A 
ATOM     10  C   UNL     1      61.588  63.789  70.336  0.00  0.00    +0.000 A 
ATOM     11  C   UNL     1      61.975  64.335  70.817  0.00  0.00    +0.000 A 
ATOM     12  C   UNL     1      63.658  65.722  70.719  0.00  0.00    +0.000 A 
ATOM     13  C   UNL     1      64.045  66.268  71.200  0.00  0.00    +0.000 A 
ATOM     14  O   UNL     1      63.784  66.394  71.972  0.00  0.00    +0.000 OA
ATOM     15  C   UNL     1      64.692  66.688  70.910  0.00  0.00    +0.000 A 
ATOM     16  C   UNL     1      65.080  67.235  71.391  0.00  0.00    +0.000 A 
ATOM     17  C   UNL     1      65.727  67.655  71.101  0.00  0.00    +0.000 A 
ATOM     18  C   UNL     1      65.988  67.528  70.327  0.00  0.00    +0.000 A 
ATOM     19  C   UNL     1      65.601  66.982  69.846  0.00  0.00    +0.000 A 
ATOM     20  C   UNL     1      64.953  66.562  70.136  0.00  0.00    +0.000 A 
ATOM     21  O   UNL     1      64.566  66.016  69.655  0.00  0.00    +0.000 OA
ATOM     22  C   UNL     1      63.919  65.596  69.945  0.00  0.00    +0.000 A 
ATOM     23  O   UNL     1      63.531  65.049  69.464  0.00  0.00    +0.000 OA
ENDROOT
TORSDOF 0
ENDMDL
