MODEL 1
REMARK VINA RESULT:   -10.615      0.000      0.000
REMARK INTER + INTRA:         -10.615
REMARK INTER:                 -10.615
REMARK INTRA:                   0.000
REMARK UNBOUND:                 0.000
ROOT
REMARK  Name = xenbucin
REMARK                            x       y       z     vdW  Elec       q    Type
REMARK                         _______ _______ _______ _____ _____    ______ ____
ATOM      1  C   UNL     1      60.293  62.153  69.796  0.00  0.00    +0.000 C 
ATOM      2  C   UNL     1      60.477  62.017  69.003  0.00  0.00    +0.000 C 
ATOM      3  C   UNL     1      60.958  62.549  68.595  0.00  0.00    +0.000 C 
ATOM      4  C   UNL     1      61.255  63.216  68.979  0.00  0.00    +0.000 C 
ATOM      5  O   UNL     1      61.735  63.747  68.571  0.00  0.00    +0.000 OA
ATOM      6  O   UNL     1      61.071  63.351  69.772  0.00  0.00    +0.000 OA
ATOM      7  C   UNL     1      61.142  62.414  67.801  0.00  0.00    +0.000 A 
ATOM      8  C   UNL     1      61.623  62.945  67.393  0.00  0.00    +0.000 A 
ATOM      9  C   UNL     1      61.807  62.810  66.600  0.00  0.00    +0.000 A 
ATOM     10  C   UNL     1      61.510  62.143  66.216  0.00  0.00    +0.000 A 
ATOM     11  C   UNL     1      61.029  61.611  66.625  0.00  0.00    +0.000 A 
ATOM     12  C   UNL     1      60.845  61.747  67.418  0.00  0.00    +0.000 A 
ATOM     13  C   UNL     1      61.694  62.008  65.424  0.00  0.00    +0.000 A 
ATOM     14  C   UNL     1      62.174  62.539  65.015  0.00  0.00    +0.000 A 
ATOM     15  C   UNL     1      62.358  62.404  64.222  0.00  0.00    +0.000 A 
ATOM     16  C   UNL     1      62.061  61.737  63.838  0.00  0.00    +0.000 A 
ATOM     17  C   UNL     1      61.581  61.205  64.247  0.00  0.00    +0.000 A 
ATOM     18  C   UNL     1      61.397  61.340  65.039  0.00  0.00    +0.000 A 
ENDROOT
TORSDOF 0
ENDMDL
MODEL 2
REMARK VINA RESULT:   -10.453      1.915      4.239
REMARK INTER + INTRA:         -10.453
REMARK INTER:                 -10.453
REMARK INTRA:                   0.000
REMARK UNBOUND:                 0.000
ROOT
REMARK  Name = xenbucin
REMARK                            x       y       z     vdW  Elec       q    Type
REMARK                         _______ _______ _______ _____ _____    ______ ____
ATOM      1  C   UNL     1      62.462  61.645  63.466  0.00  0.00    +0.000 C 
ATOM      2  C   UNL     1      62.308  61.908  64.232  0.00  0.00    +0.000 C 
ATOM      3  C   UNL     1      61.597  61.708  64.601  0.00  0.00    +0.000 C 
ATOM      4  C   UNL     1      61.042  61.245  64.204  0.00  0.00    +0.000 C 
ATOM      5  O   UNL     1      60.333  61.045  64.573  0.00  0.00    +0.000 OA
ATOM      6  O   UNL     1      61.197  60.982  63.438  0.00  0.00    +0.000 OA
ATOM      7  C   UNL     1      61.442  61.972  65.368  0.00  0.00    +0.000 A 
ATOM      8  C   UNL     1      60.733  61.772  65.737  0.00  0.00    +0.000 A 
ATOM      9  C   UNL     1      60.578  62.036  66.503  0.00  0.00    +0.000 A 
ATOM     10  C   UNL     1      61.133  62.499  66.901  0.00  0.00    +0.000 A 
ATOM     11  C   UNL     1      61.843  62.699  66.531  0.00  0.00    +0.000 A 
ATOM     12  C   UNL     1      61.998  62.436  65.764  0.00  0.00    +0.000 A 
ATOM     13  C   UNL     1      60.978  62.762  67.666  0.00  0.00    +0.000 A 
ATOM     14  C   UNL     1      60.268  62.563  68.036  0.00  0.00    +0.000 A 
ATOM     15  C   UNL     1      60.113  62.826  68.802  0.00  0.00    +0.000 A 
ATOM     16  C   UNL     1      60.668  63.289  69.199  0.00  0.00    +0.000 A 
ATOM     17  C   UNL     1      61.379  63.490  68.830  0.00  0.00    +0.000 A 
ATOM     18  C   UNL     1      61.534  63.226  68.063  0.00  0.00    +0.000 A 
ENDROOT
TORSDOF 0
ENDMDL
MODEL 3
REMARK VINA RESULT:    -9.821      2.183      5.060
REMARK INTER + INTRA:          -9.821
REMARK INTER:                  -9.821
REMARK INTRA:                   0.000
REMARK UNBOUND:                 0.000
ROOT
REMARK  Name = xenbucin
REMARK                            x       y       z     vdW  Elec       q    Type
REMARK                         _______ _______ _______ _____ _____    ______ ____
ATOM      1  C   UNL     1      60.052  61.980  67.259  0.00  0.00    +0.000 C 
ATOM      2  C   UNL     1      60.288  61.976  68.049  0.00  0.00    +0.000 C 
ATOM      3  C   UNL     1      60.375  62.689  68.457  0.00  0.00    +0.000 C 
ATOM      4  C   UNL     1      60.226  63.404  68.075  0.00  0.00    +0.000 C 
ATOM      5  O   UNL     1      60.313  64.115  68.482  0.00  0.00    +0.000 OA
ATOM      6  O   UNL     1      59.989  63.407  67.284  0.00  0.00    +0.000 OA
ATOM      7  C   UNL     1      60.612  62.685  69.248  0.00  0.00    +0.000 A 
ATOM      8  C   UNL     1      60.699  63.396  69.656  0.00  0.00    +0.000 A 
ATOM      9  C   UNL     1      60.935  63.392  70.446  0.00  0.00    +0.000 A 
ATOM     10  C   UNL     1      61.084  62.677  70.829  0.00  0.00    +0.000 A 
ATOM     11  C   UNL     1      60.997  61.965  70.420  0.00  0.00    +0.000 A 
ATOM     12  C   UNL     1      60.761  61.969  69.630  0.00  0.00    +0.000 A 
ATOM     13  C   UNL     1      61.321  62.673  71.618  0.00  0.00    +0.000 A 
ATOM     14  C   UNL     1      61.408  63.384  72.027  0.00  0.00    +0.000 A 
ATOM     15  C   UNL     1      61.644  63.381  72.817  0.00  0.00    +0.000 A 
ATOM     16  C   UNL     1      61.793  62.665  73.199  0.00  0.00    +0.000 A 
ATOM     17  C   UNL     1      61.706  61.953  72.792  0.00  0.00    +0.000 A 
ATOM     18  C   UNL     1      61.470  61.957  72.001  0.00  0.00    +0.000 A 
ENDROOT
TORSDOF 0
ENDMDL
MODEL 4
REMARK VINA RESULT:    -9.803      4.320      6.137
REMARK INTER + INTRA:          -9.803
REMARK INTER:                  -9.803
REMARK INTRA:                   0.000
REMARK UNBOUND:                 0.000
ROOT
REMARK  Name = xenbucin
REMARK                            x       y       z     vdW  Elec       q    Type
REMARK                         _______ _______ _______ _____ _____    ______ ____
ATOM      1  C   UNL     1      61.633  63.591  71.388  0.00  0.00    +0.000 C 
ATOM      2  C   UNL     1      62.248  64.140  71.358  0.00  0.00    +0.000 C 
ATOM      3  C   UNL     1      62.566  64.362  70.629  0.00  0.00    +0.000 C 
ATOM      4  C   UNL     1      62.270  64.037  69.932  0.00  0.00    +0.000 C 
ATOM      5  O   UNL     1      62.588  64.259  69.205  0.00  0.00    +0.000 OA
ATOM      6  O   UNL     1      61.655  63.488  69.963  0.00  0.00    +0.000 OA
ATOM      7  C   UNL     1      63.182  64.912  70.599  0.00  0.00    +0.000 A 
ATOM      8  C   UNL     1      63.500  65.134  69.872  0.00  0.00    +0.000 A 
ATOM      9  C   UNL     1      64.115  65.683  69.842  0.00  0.00    +0.000 A 
ATOM     10  C   UNL     1      64.412  66.010  70.539  0.00  0.00    +0.000 A 
ATOM     11  C   UNL     1      64.093  65.786  71.267  0.00  0.00    +0.000 A 
ATOM     12  C   UNL     1      63.478  65.238  71.297  0.00  0.00    +0.000 A 
ATOM     13  C   UNL     1      65.027  66.558  70.509  0.00  0.00    +0.000 A 
ATOM     14  C   UNL     1      65.346  66.781  69.782  0.00  0.00    +0.000 A 
ATOM     15  C   UNL     1      65.961  67.330  69.751  0.00  0.00    +0.000 A 
ATOM     16  C   UNL     1      66.257  67.655  70.448  0.00  0.00    +0.000 A 
ATOM     17  C   UNL     1      65.939  67.433  71.177  0.00  0.00    +0.000 A 
ATOM     18  C   UNL     1      65.324  66.884  71.207  0.00  0.00    +0.000 A 
ENDROOT
TORSDOF 0
ENDMDL
MODEL 5
REMARK VINA RESULT:    -9.551      4.520      6.256
REMARK INTER + INTRA:          -9.551
REMARK INTER:                  -9.551
REMARK INTRA:                   0.000
REMARK UNBOUND:                 0.000
ROOT
REMARK  Name = xenbucin
REMARK                            x       y       z     vdW  Elec       q    Type
REMARK                         _______ _______ _______ _____ _____    ______ ____
ATOM      1  C   UNL     1      66.376  67.780  69.936  0.00  0.00    +0.000 C 
ATOM      2  C   UNL     1      65.769  67.227  69.852  0.00  0.00    +0.000 C 
ATOM      3  C   UNL     1      65.507  66.800  70.508  0.00  0.00    +0.000 C 
ATOM      4  C   UNL     1      65.851  66.926  71.247  0.00  0.00    +0.000 C 
ATOM      5  O   UNL     1      65.589  66.499  71.902  0.00  0.00    +0.000 OA
ATOM      6  O   UNL     1      66.457  67.479  71.331  0.00  0.00    +0.000 OA
ATOM      7  C   UNL     1      64.900  66.247  70.424  0.00  0.00    +0.000 A 
ATOM      8  C   UNL     1      64.638  65.820  71.079  0.00  0.00    +0.000 A 
ATOM      9  C   UNL     1      64.032  65.267  70.995  0.00  0.00    +0.000 A 
ATOM     10  C   UNL     1      63.687  65.141  70.256  0.00  0.00    +0.000 A 
ATOM     11  C   UNL     1      63.950  65.568  69.600  0.00  0.00    +0.000 A 
ATOM     12  C   UNL     1      64.557  66.121  69.684  0.00  0.00    +0.000 A 
ATOM     13  C   UNL     1      63.082  64.588  70.172  0.00  0.00    +0.000 A 
ATOM     14  C   UNL     1      62.819  64.161  70.826  0.00  0.00    +0.000 A 
ATOM     15  C   UNL     1      62.212  63.608  70.742  0.00  0.00    +0.000 A 
ATOM     16  C   UNL     1      61.869  63.482  70.004  0.00  0.00    +0.000 A 
ATOM     17  C   UNL     1      62.131  63.909  69.348  0.00  0.00    +0.000 A 
ATOM     18  C   UNL     1      62.737  64.462  69.432  0.00  0.00    +0.000 A 
ENDROOT
TORSDOF 0
ENDMDL
MODEL 6
REMARK VINA RESULT:    -9.542      1.836      2.935
REMARK INTER + INTRA:          -9.542
REMARK INTER:                  -9.542
REMARK INTRA:                   0.000
REMARK UNBOUND:                 0.000
ROOT
REMARK  Name = xenbucin
REMARK                            x       y       z     vdW  Elec       q    Type
REMARK                         _______ _______ _______ _____ _____    ______ ____
ATOM      1  C   UNL     1      61.325  62.802  72.653  0.00  0.00    +0.000 C 
ATOM      2  C   UNL     1      61.116  62.691  71.863  0.00  0.00    +0.000 C 
ATOM      3  C   UNL     1      61.451  63.167  71.278  0.00  0.00    +0.000 C 
ATOM      4  C   UNL     1      61.994  63.752  71.482  0.00  0.00    +0.000 C 
ATOM      5  O   UNL     1      62.328  64.228  70.897  0.00  0.00    +0.000 OA
ATOM      6  O   UNL     1      62.203  63.863  72.272  0.00  0.00    +0.000 OA
ATOM      7  C   UNL     1      61.241  63.057  70.486  0.00  0.00    +0.000 A 
ATOM      8  C   UNL     1      61.575  63.532  69.901  0.00  0.00    +0.000 A 
ATOM      9  C   UNL     1      61.366  63.421  69.111  0.00  0.00    +0.000 A 
ATOM     10  C   UNL     1      60.822  62.836  68.906  0.00  0.00    +0.000 A 
ATOM     11  C   UNL     1      60.488  62.360  69.492  0.00  0.00    +0.000 A 
ATOM     12  C   UNL     1      60.697  62.470  70.282  0.00  0.00    +0.000 A 
ATOM     13  C   UNL     1      60.613  62.725  68.116  0.00  0.00    +0.000 A 
ATOM     14  C   UNL     1      60.947  63.200  67.530  0.00  0.00    +0.000 A 
ATOM     15  C   UNL     1      60.738  63.090  66.740  0.00  0.00    +0.000 A 
ATOM     16  C   UNL     1      60.195  62.505  66.536  0.00  0.00    +0.000 A 
ATOM     17  C   UNL     1      59.860  62.029  67.121  0.00  0.00    +0.000 A 
ATOM     18  C   UNL     1      60.069  62.139  67.911  0.00  0.00    +0.000 A 
ENDROOT
TORSDOF 0
ENDMDL
MODEL 7
REMARK VINA RESULT:    -9.444      5.052      6.438
REMARK INTER + INTRA:          -9.444
REMARK INTER:                  -9.444
REMARK INTRA:                   0.000
REMARK UNBOUND:                 0.000
ROOT
REMARK  Name = xenbucin
REMARK                            x       y       z     vdW  Elec       q    Type
REMARK                         _______ _______ _______ _____ _____    ______ ____
ATOM      1  C   UNL     1      65.325  67.413  70.968  0.00  0.00    +0.000 C 
ATOM      2  C   UNL     1      64.735  66.891  71.212  0.00  0.00    +0.000 C 
ATOM      3  C   UNL     1      64.541  66.240  70.745  0.00  0.00    +0.000 C 
ATOM      4  C   UNL     1      64.937  66.109  70.034  0.00  0.00    +0.000 C 
ATOM      5  O   UNL     1      64.743  65.458  69.567  0.00  0.00    +0.000 OA
ATOM      6  O   UNL     1      65.528  66.631  69.789  0.00  0.00    +0.000 OA
ATOM      7  C   UNL     1      63.950  65.718  70.990  0.00  0.00    +0.000 A 
ATOM      8  C   UNL     1      63.756  65.066  70.523  0.00  0.00    +0.000 A 
ATOM      9  C   UNL     1      63.165  64.545  70.768  0.00  0.00    +0.000 A 
ATOM     10  C   UNL     1      62.768  64.675  71.479  0.00  0.00    +0.000 A 
ATOM     11  C   UNL     1      62.963  65.327  71.946  0.00  0.00    +0.000 A 
ATOM     12  C   UNL     1      63.553  65.848  71.702  0.00  0.00    +0.000 A 
ATOM     13  C   UNL     1      62.178  64.154  71.723  0.00  0.00    +0.000 A 
ATOM     14  C   UNL     1      61.984  63.502  71.257  0.00  0.00    +0.000 A 
ATOM     15  C   UNL     1      61.393  62.980  71.501  0.00  0.00    +0.000 A 
ATOM     16  C   UNL     1      60.997  63.111  72.213  0.00  0.00    +0.000 A 
ATOM     17  C   UNL     1      61.191  63.763  72.680  0.00  0.00    +0.000 A 
ATOM     18  C   UNL     1      61.781  64.284  72.435  0.00  0.00    +0.000 A 
ENDROOT
TORSDOF 0
ENDMDL
MODEL 8
REMARK VINA RESULT:    -9.046      4.080      5.597
REMARK INTER + INTRA:          -9.046
REMARK INTER:                  -9.046
REMARK INTRA:                   0.000
REMARK UNBOUND:                 0.000
ROOT
REMARK  Name = xenbucin
REMARK                            x       y       z     vdW  Elec       q    Type
REMARK                         _______ _______ _______ _____ _____    ______ ____
ATOM      1  C   UNL     1      63.848  66.709  71.506  0.00  0.00    +0.000 C 
ATOM      2  C   UNL     1      63.418  66.035  71.301  0.00  0.00    +0.000 C 
ATOM      3  C   UNL     1      62.866  65.723  71.829  0.00  0.00    +0.000 C 
ATOM      4  C   UNL     1      62.745  66.083  72.561  0.00  0.00    +0.000 C 
ATOM      5  O   UNL     1      62.193  65.770  73.088  0.00  0.00    +0.000 OA
ATOM      6  O   UNL     1      63.175  66.756  72.765  0.00  0.00    +0.000 OA
ATOM      7  C   UNL     1      62.436  65.048  71.624  0.00  0.00    +0.000 A 
ATOM      8  C   UNL     1      61.884  64.736  72.151  0.00  0.00    +0.000 A 
ATOM      9  C   UNL     1      61.454  64.062  71.947  0.00  0.00    +0.000 A 
ATOM     10  C   UNL     1      61.575  63.701  71.215  0.00  0.00    +0.000 A 
ATOM     11  C   UNL     1      62.127  64.015  70.687  0.00  0.00    +0.000 A 
ATOM     12  C   UNL     1      62.558  64.688  70.892  0.00  0.00    +0.000 A 
ATOM     13  C   UNL     1      61.145  63.028  71.011  0.00  0.00    +0.000 A 
ATOM     14  C   UNL     1      60.593  62.715  71.538  0.00  0.00    +0.000 A 
ATOM     15  C   UNL     1      60.163  62.042  71.333  0.00  0.00    +0.000 A 
ATOM     16  C   UNL     1      60.285  61.681  70.602  0.00  0.00    +0.000 A 
ATOM     17  C   UNL     1      60.836  61.994  70.074  0.00  0.00    +0.000 A 
ATOM     18  C   UNL     1      61.267  62.667  70.278  0.00  0.00    +0.000 A 
ENDROOT
TORSDOF 0
ENDMDL
MODEL 9
REMARK VINA RESULT:    -8.959      3.775      5.366
REMARK INTER + INTRA:          -8.959
REMARK INTER:                  -8.959
REMARK INTRA:                   0.000
REMARK UNBOUND:                 0.000
ROOT
REMARK  Name = xenbucin
REMARK                            x       y       z     vdW  Elec       q    Type
REMARK                         _______ _______ _______ _____ _____    ______ ____
ATOM      1  C   UNL     1      59.463  67.630  70.773  0.00  0.00    +0.000 C 
ATOM      2  C   UNL     1      59.631  66.840  70.605  0.00  0.00    +0.000 C 
ATOM      3  C   UNL     1      59.564  66.270  71.198  0.00  0.00    +0.000 C 
ATOM      4  C   UNL     1      59.329  66.489  71.957  0.00  0.00    +0.000 C 
ATOM      5  O   UNL     1      59.262  65.919  72.549  0.00  0.00    +0.000 OA
ATOM      6  O   UNL     1      59.161  67.279  72.125  0.00  0.00    +0.000 OA
ATOM      7  C   UNL     1      59.733  65.479  71.030  0.00  0.00    +0.000 A 
ATOM      8  C   UNL     1      59.666  64.909  71.622  0.00  0.00    +0.000 A 
ATOM      9  C   UNL     1      59.834  64.119  71.454  0.00  0.00    +0.000 A 
ATOM     10  C   UNL     1      60.069  63.899  70.695  0.00  0.00    +0.000 A 
ATOM     11  C   UNL     1      60.136  64.470  70.102  0.00  0.00    +0.000 A 
ATOM     12  C   UNL     1      59.968  65.260  70.270  0.00  0.00    +0.000 A 
ATOM     13  C   UNL     1      60.238  63.110  70.527  0.00  0.00    +0.000 A 
ATOM     14  C   UNL     1      60.171  62.539  71.119  0.00  0.00    +0.000 A 
ATOM     15  C   UNL     1      60.339  61.749  70.951  0.00  0.00    +0.000 A 
ATOM     16  C   UNL     1      60.574  61.530  70.192  0.00  0.00    +0.000 A 
ATOM     17  C   UNL     1      60.642  62.100  69.599  0.00  0.00    +0.000 A 
ATOM     18  C   UNL     1      60.473  62.890  69.767  0.00  0.00    +0.000 A 
ENDROOT
TORSDOF 0
ENDMDL
