MODEL 1
REMARK VINA RESULT:   -10.124      0.000      0.000
REMARK INTER + INTRA:         -10.124
REMARK INTER:                 -10.124
REMARK INTRA:                   0.000
REMARK UNBOUND:                 0.000
ROOT
REMARK  Name = xibenolol
REMARK                            x       y       z     vdW  Elec       q    Type
REMARK                         _______ _______ _______ _____ _____    ______ ____
ATOM      1  C   UNL     1      60.958  61.031  63.765  0.00  0.00    +0.000 C 
ATOM      2  C   UNL     1      61.374  61.483  64.314  0.00  0.00    +0.000 A 
ATOM      3  C   UNL     1      62.120  61.780  64.124  0.00  0.00    +0.000 A 
ATOM      4  C   UNL     1      62.537  62.233  64.674  0.00  0.00    +0.000 A 
ATOM      5  C   UNL     1      62.208  62.388  65.414  0.00  0.00    +0.000 A 
ATOM      6  C   UNL     1      61.462  62.091  65.605  0.00  0.00    +0.000 A 
ATOM      7  O   UNL     1      61.132  62.246  66.346  0.00  0.00    +0.000 OA
ATOM      8  C   UNL     1      61.550  62.699  66.896  0.00  0.00    +0.000 C 
ATOM      9  C   UNL     1      61.221  62.854  67.636  0.00  0.00    +0.000 C 
ATOM     10  O   UNL     1      60.476  62.557  67.827  0.00  0.00    +0.000 OA
ATOM     11  C   UNL     1      61.637  63.306  68.186  0.00  0.00    +0.000 C 
ATOM     12  N   UNL     1      61.309  63.462  68.927  0.00  0.00    +0.000 NA
ATOM     13  C   UNL     1      61.725  63.914  69.476  0.00  0.00    +0.000 C 
ATOM     14  C   UNL     1      62.142  64.366  70.026  0.00  0.00    +0.000 C 
ATOM     15  C   UNL     1      61.105  63.832  70.013  0.00  0.00    +0.000 C 
ATOM     16  C   UNL     1      62.346  63.996  68.938  0.00  0.00    +0.000 C 
ATOM     17  C   UNL     1      61.045  61.638  65.056  0.00  0.00    +0.000 A 
ATOM     18  C   UNL     1      60.299  61.341  65.246  0.00  0.00    +0.000 C 
ENDROOT
TORSDOF 0
ENDMDL
MODEL 2
REMARK VINA RESULT:   -10.113      1.457      4.867
REMARK INTER + INTRA:         -10.113
REMARK INTER:                 -10.113
REMARK INTRA:                   0.000
REMARK UNBOUND:                 0.000
ROOT
REMARK  Name = xibenolol
REMARK                            x       y       z     vdW  Elec       q    Type
REMARK                         _______ _______ _______ _____ _____    ______ ____
ATOM      1  C   UNL     1      60.102  63.471  71.645  0.00  0.00    +0.000 C 
ATOM      2  C   UNL     1      60.294  62.949  71.036  0.00  0.00    +0.000 A 
ATOM      3  C   UNL     1      60.278  62.135  71.170  0.00  0.00    +0.000 A 
ATOM      4  C   UNL     1      60.470  61.613  70.561  0.00  0.00    +0.000 A 
ATOM      5  C   UNL     1      60.679  61.905  69.818  0.00  0.00    +0.000 A 
ATOM      6  C   UNL     1      60.696  62.719  69.684  0.00  0.00    +0.000 A 
ATOM      7  O   UNL     1      60.906  63.011  68.941  0.00  0.00    +0.000 OA
ATOM      8  C   UNL     1      61.098  62.488  68.331  0.00  0.00    +0.000 C 
ATOM      9  C   UNL     1      61.307  62.780  67.589  0.00  0.00    +0.000 C 
ATOM     10  O   UNL     1      61.324  63.593  67.455  0.00  0.00    +0.000 OA
ATOM     11  C   UNL     1      61.500  62.257  66.980  0.00  0.00    +0.000 C 
ATOM     12  N   UNL     1      61.709  62.548  66.237  0.00  0.00    +0.000 NA
ATOM     13  C   UNL     1      61.902  62.027  65.629  0.00  0.00    +0.000 C 
ATOM     14  C   UNL     1      62.094  61.505  65.020  0.00  0.00    +0.000 C 
ATOM     15  C   UNL     1      62.032  62.665  65.123  0.00  0.00    +0.000 C 
ATOM     16  C   UNL     1      61.771  61.389  66.135  0.00  0.00    +0.000 C 
ATOM     17  C   UNL     1      60.504  63.241  70.293  0.00  0.00    +0.000 A 
ATOM     18  C   UNL     1      60.521  64.056  70.159  0.00  0.00    +0.000 C 
ENDROOT
TORSDOF 0
ENDMDL
MODEL 3
REMARK VINA RESULT:    -9.580      5.132      6.587
REMARK INTER + INTRA:          -9.580
REMARK INTER:                  -9.580
REMARK INTRA:                   0.000
REMARK UNBOUND:                 0.000
ROOT
REMARK  Name = xibenolol
REMARK                            x       y       z     vdW  Elec       q    Type
REMARK                         _______ _______ _______ _____ _____    ______ ____
ATOM      1  C   UNL     1      66.115  67.615  69.866  0.00  0.00    +0.000 C 
ATOM      2  C   UNL     1      65.664  67.247  70.448  0.00  0.00    +0.000 A 
ATOM      3  C   UNL     1      65.769  67.447  71.241  0.00  0.00    +0.000 A 
ATOM      4  C   UNL     1      65.317  67.078  71.824  0.00  0.00    +0.000 A 
ATOM      5  C   UNL     1      64.759  66.508  71.614  0.00  0.00    +0.000 A 
ATOM      6  C   UNL     1      64.653  66.307  70.821  0.00  0.00    +0.000 A 
ATOM      7  O   UNL     1      64.094  65.737  70.610  0.00  0.00    +0.000 OA
ATOM      8  C   UNL     1      63.642  65.367  71.194  0.00  0.00    +0.000 C 
ATOM      9  C   UNL     1      63.084  64.798  70.983  0.00  0.00    +0.000 C 
ATOM     10  O   UNL     1      62.978  64.597  70.191  0.00  0.00    +0.000 OA
ATOM     11  C   UNL     1      62.632  64.429  71.566  0.00  0.00    +0.000 C 
ATOM     12  N   UNL     1      62.073  63.859  71.357  0.00  0.00    +0.000 NA
ATOM     13  C   UNL     1      61.622  63.490  71.939  0.00  0.00    +0.000 C 
ATOM     14  C   UNL     1      61.170  63.121  72.522  0.00  0.00    +0.000 C 
ATOM     15  C   UNL     1      61.238  63.045  71.360  0.00  0.00    +0.000 C 
ATOM     16  C   UNL     1      62.005  63.935  72.519  0.00  0.00    +0.000 C 
ATOM     17  C   UNL     1      65.105  66.676  70.238  0.00  0.00    +0.000 A 
ATOM     18  C   UNL     1      64.999  66.475  69.444  0.00  0.00    +0.000 C 
ENDROOT
TORSDOF 0
ENDMDL
MODEL 4
REMARK VINA RESULT:    -9.211      4.285      5.718
REMARK INTER + INTRA:          -9.211
REMARK INTER:                  -9.211
REMARK INTRA:                   0.000
REMARK UNBOUND:                 0.000
ROOT
REMARK  Name = xibenolol
REMARK                            x       y       z     vdW  Elec       q    Type
REMARK                         _______ _______ _______ _____ _____    ______ ____
ATOM      1  C   UNL     1      60.404  62.139  71.034  0.00  0.00    +0.000 C 
ATOM      2  C   UNL     1      60.933  62.675  71.368  0.00  0.00    +0.000 A 
ATOM      3  C   UNL     1      60.960  62.774  72.186  0.00  0.00    +0.000 A 
ATOM      4  C   UNL     1      61.489  63.311  72.520  0.00  0.00    +0.000 A 
ATOM      5  C   UNL     1      61.992  63.750  72.036  0.00  0.00    +0.000 A 
ATOM      6  C   UNL     1      61.967  63.651  71.217  0.00  0.00    +0.000 A 
ATOM      7  O   UNL     1      62.470  64.090  70.732  0.00  0.00    +0.000 OA
ATOM      8  C   UNL     1      63.000  64.628  71.066  0.00  0.00    +0.000 C 
ATOM      9  C   UNL     1      63.503  65.066  70.582  0.00  0.00    +0.000 C 
ATOM     10  O   UNL     1      63.477  64.968  69.764  0.00  0.00    +0.000 OA
ATOM     11  C   UNL     1      64.032  65.603  70.916  0.00  0.00    +0.000 C 
ATOM     12  N   UNL     1      64.536  66.042  70.432  0.00  0.00    +0.000 NA
ATOM     13  C   UNL     1      65.065  66.579  70.766  0.00  0.00    +0.000 C 
ATOM     14  C   UNL     1      65.594  67.116  71.100  0.00  0.00    +0.000 C 
ATOM     15  C   UNL     1      65.341  66.775  70.014  0.00  0.00    +0.000 C 
ATOM     16  C   UNL     1      64.789  66.382  71.519  0.00  0.00    +0.000 C 
ATOM     17  C   UNL     1      61.437  63.114  70.883  0.00  0.00    +0.000 A 
ATOM     18  C   UNL     1      61.411  63.016  70.063  0.00  0.00    +0.000 C 
ENDROOT
TORSDOF 0
ENDMDL
MODEL 5
REMARK VINA RESULT:    -8.761      2.947      5.934
REMARK INTER + INTRA:          -8.761
REMARK INTER:                  -8.761
REMARK INTRA:                   0.000
REMARK UNBOUND:                 0.000
ROOT
REMARK  Name = xibenolol
REMARK                            x       y       z     vdW  Elec       q    Type
REMARK                         _______ _______ _______ _____ _____    ______ ____
ATOM      1  C   UNL     1      65.377  67.177  71.503  0.00  0.00    +0.000 C 
ATOM      2  C   UNL     1      65.045  66.771  70.868  0.00  0.00    +0.000 A 
ATOM      3  C   UNL     1      65.349  66.872  70.108  0.00  0.00    +0.000 A 
ATOM      4  C   UNL     1      65.016  66.466  69.472  0.00  0.00    +0.000 A 
ATOM      5  C   UNL     1      64.380  65.957  69.596  0.00  0.00    +0.000 A 
ATOM      6  C   UNL     1      64.075  65.854  70.356  0.00  0.00    +0.000 A 
ATOM      7  O   UNL     1      63.437  65.345  70.481  0.00  0.00    +0.000 OA
ATOM      8  C   UNL     1      63.104  64.938  69.844  0.00  0.00    +0.000 C 
ATOM      9  C   UNL     1      62.467  64.429  69.968  0.00  0.00    +0.000 C 
ATOM     10  O   UNL     1      62.163  64.327  70.727  0.00  0.00    +0.000 OA
ATOM     11  C   UNL     1      62.135  64.022  69.332  0.00  0.00    +0.000 C 
ATOM     12  N   UNL     1      61.497  63.513  69.456  0.00  0.00    +0.000 NA
ATOM     13  C   UNL     1      61.165  63.107  68.821  0.00  0.00    +0.000 C 
ATOM     14  C   UNL     1      60.832  62.700  68.185  0.00  0.00    +0.000 C 
ATOM     15  C   UNL     1      60.621  62.754  69.331  0.00  0.00    +0.000 C 
ATOM     16  C   UNL     1      61.709  63.460  68.310  0.00  0.00    +0.000 C 
ATOM     17  C   UNL     1      64.407  66.261  70.992  0.00  0.00    +0.000 A 
ATOM     18  C   UNL     1      64.103  66.159  71.752  0.00  0.00    +0.000 C 
ENDROOT
TORSDOF 0
ENDMDL
MODEL 6
REMARK VINA RESULT:    -8.451      4.484      5.342
REMARK INTER + INTRA:          -8.451
REMARK INTER:                  -8.451
REMARK INTRA:                   0.000
REMARK UNBOUND:                 0.000
ROOT
REMARK  Name = xibenolol
REMARK                            x       y       z     vdW  Elec       q    Type
REMARK                         _______ _______ _______ _____ _____    ______ ____
ATOM      1  C   UNL     1      61.750  61.147  72.097  0.00  0.00    +0.000 C 
ATOM      2  C   UNL     1      61.337  61.612  71.557  0.00  0.00    +0.000 A 
ATOM      3  C   UNL     1      60.875  61.255  70.974  0.00  0.00    +0.000 A 
ATOM      4  C   UNL     1      60.461  61.720  70.433  0.00  0.00    +0.000 A 
ATOM      5  C   UNL     1      60.509  62.542  70.475  0.00  0.00    +0.000 A 
ATOM      6  C   UNL     1      60.971  62.900  71.058  0.00  0.00    +0.000 A 
ATOM      7  O   UNL     1      61.019  63.723  71.100  0.00  0.00    +0.000 OA
ATOM      8  C   UNL     1      60.604  64.189  70.559  0.00  0.00    +0.000 C 
ATOM      9  C   UNL     1      60.652  65.011  70.601  0.00  0.00    +0.000 C 
ATOM     10  O   UNL     1      61.113  65.368  71.183  0.00  0.00    +0.000 OA
ATOM     11  C   UNL     1      60.238  65.476  70.060  0.00  0.00    +0.000 C 
ATOM     12  N   UNL     1      60.285  66.299  70.101  0.00  0.00    +0.000 NA
ATOM     13  C   UNL     1      59.872  66.763  69.561  0.00  0.00    +0.000 C 
ATOM     14  C   UNL     1      59.458  67.229  69.020  0.00  0.00    +0.000 C 
ATOM     15  C   UNL     1      60.166  67.444  69.922  0.00  0.00    +0.000 C 
ATOM     16  C   UNL     1      59.578  66.082  69.200  0.00  0.00    +0.000 C 
ATOM     17  C   UNL     1      61.385  62.435  71.599  0.00  0.00    +0.000 A 
ATOM     18  C   UNL     1      61.847  62.792  72.182  0.00  0.00    +0.000 C 
ENDROOT
TORSDOF 0
ENDMDL
MODEL 7
REMARK VINA RESULT:    -8.256      5.096      7.502
REMARK INTER + INTRA:          -8.256
REMARK INTER:                  -8.256
REMARK INTRA:                   0.000
REMARK UNBOUND:                 0.000
ROOT
REMARK  Name = xibenolol
REMARK                            x       y       z     vdW  Elec       q    Type
REMARK                         _______ _______ _______ _____ _____    ______ ____
ATOM      1  C   UNL     1      63.738  68.718  72.684  0.00  0.00    +0.000 C 
ATOM      2  C   UNL     1      63.150  68.144  72.748  0.00  0.00    +0.000 A 
ATOM      3  C   UNL     1      62.453  68.310  73.158  0.00  0.00    +0.000 A 
ATOM      4  C   UNL     1      61.864  67.735  73.221  0.00  0.00    +0.000 A 
ATOM      5  C   UNL     1      61.972  66.995  72.875  0.00  0.00    +0.000 A 
ATOM      6  C   UNL     1      62.669  66.828  72.465  0.00  0.00    +0.000 A 
ATOM      7  O   UNL     1      62.777  66.087  72.119  0.00  0.00    +0.000 OA
ATOM      8  C   UNL     1      62.187  65.511  72.182  0.00  0.00    +0.000 C 
ATOM      9  C   UNL     1      62.295  64.771  71.836  0.00  0.00    +0.000 C 
ATOM     10  O   UNL     1      62.991  64.604  71.427  0.00  0.00    +0.000 OA
ATOM     11  C   UNL     1      61.706  64.196  71.900  0.00  0.00    +0.000 C 
ATOM     12  N   UNL     1      61.814  63.455  71.554  0.00  0.00    +0.000 NA
ATOM     13  C   UNL     1      61.226  62.882  71.618  0.00  0.00    +0.000 C 
ATOM     14  C   UNL     1      60.637  62.307  71.681  0.00  0.00    +0.000 C 
ATOM     15  C   UNL     1      61.690  62.358  71.181  0.00  0.00    +0.000 C 
ATOM     16  C   UNL     1      60.761  63.406  72.054  0.00  0.00    +0.000 C 
ATOM     17  C   UNL     1      63.257  67.402  72.402  0.00  0.00    +0.000 A 
ATOM     18  C   UNL     1      63.954  67.235  71.991  0.00  0.00    +0.000 C 
ENDROOT
TORSDOF 0
ENDMDL
MODEL 8
REMARK VINA RESULT:    -8.089      6.179      7.347
REMARK INTER + INTRA:          -8.089
REMARK INTER:                  -8.089
REMARK INTRA:                   0.000
REMARK UNBOUND:                 0.000
ROOT
REMARK  Name = xibenolol
REMARK                            x       y       z     vdW  Elec       q    Type
REMARK                         _______ _______ _______ _____ _____    ______ ____
ATOM      1  C   UNL     1      67.375  67.235  71.334  0.00  0.00    +0.000 C 
ATOM      2  C   UNL     1      66.614  67.201  71.020  0.00  0.00    +0.000 A 
ATOM      3  C   UNL     1      66.478  67.438  70.241  0.00  0.00    +0.000 A 
ATOM      4  C   UNL     1      65.716  67.404  69.926  0.00  0.00    +0.000 A 
ATOM      5  C   UNL     1      65.090  67.134  70.390  0.00  0.00    +0.000 A 
ATOM      6  C   UNL     1      65.225  66.898  71.169  0.00  0.00    +0.000 A 
ATOM      7  O   UNL     1      64.598  66.627  71.633  0.00  0.00    +0.000 OA
ATOM      8  C   UNL     1      63.836  66.594  71.318  0.00  0.00    +0.000 C 
ATOM      9  C   UNL     1      63.210  66.324  71.782  0.00  0.00    +0.000 C 
ATOM     10  O   UNL     1      63.345  66.087  72.560  0.00  0.00    +0.000 OA
ATOM     11  C   UNL     1      62.448  66.290  71.467  0.00  0.00    +0.000 C 
ATOM     12  N   UNL     1      61.821  66.020  71.930  0.00  0.00    +0.000 NA
ATOM     13  C   UNL     1      61.060  65.987  71.615  0.00  0.00    +0.000 C 
ATOM     14  C   UNL     1      60.299  65.953  71.300  0.00  0.00    +0.000 C 
ATOM     15  C   UNL     1      60.777  65.694  72.333  0.00  0.00    +0.000 C 
ATOM     16  C   UNL     1      61.344  66.279  70.898  0.00  0.00    +0.000 C 
ATOM     17  C   UNL     1      65.987  66.931  71.484  0.00  0.00    +0.000 A 
ATOM     18  C   UNL     1      66.122  66.695  72.263  0.00  0.00    +0.000 C 
ENDROOT
TORSDOF 0
ENDMDL
MODEL 9
REMARK VINA RESULT:    -8.012      6.965      7.547
REMARK INTER + INTRA:          -8.012
REMARK INTER:                  -8.012
REMARK INTRA:                   0.000
REMARK UNBOUND:                 0.000
ROOT
REMARK  Name = xibenolol
REMARK                            x       y       z     vdW  Elec       q    Type
REMARK                         _______ _______ _______ _____ _____    ______ ____
ATOM      1  C   UNL     1      58.836  67.083  72.543  0.00  0.00    +0.000 C 
ATOM      2  C   UNL     1      59.512  67.204  72.088  0.00  0.00    +0.000 A 
ATOM      3  C   UNL     1      59.447  67.529  71.332  0.00  0.00    +0.000 A 
ATOM      4  C   UNL     1      60.124  67.650  70.876  0.00  0.00    +0.000 A 
ATOM      5  C   UNL     1      60.865  67.447  71.175  0.00  0.00    +0.000 A 
ATOM      6  C   UNL     1      60.930  67.122  71.931  0.00  0.00    +0.000 A 
ATOM      7  O   UNL     1      61.671  66.918  72.231  0.00  0.00    +0.000 OA
ATOM      8  C   UNL     1      62.349  67.039  71.774  0.00  0.00    +0.000 C 
ATOM      9  C   UNL     1      63.090  66.836  72.073  0.00  0.00    +0.000 C 
ATOM     10  O   UNL     1      63.155  66.511  72.828  0.00  0.00    +0.000 OA
ATOM     11  C   UNL     1      63.766  66.957  71.616  0.00  0.00    +0.000 C 
ATOM     12  N   UNL     1      64.508  66.754  71.915  0.00  0.00    +0.000 NA
ATOM     13  C   UNL     1      65.183  66.875  71.459  0.00  0.00    +0.000 C 
ATOM     14  C   UNL     1      65.860  66.996  71.003  0.00  0.00    +0.000 C 
ATOM     15  C   UNL     1      65.649  66.570  72.068  0.00  0.00    +0.000 C 
ATOM     16  C   UNL     1      64.718  67.180  70.850  0.00  0.00    +0.000 C 
ATOM     17  C   UNL     1      60.254  67.000  72.387  0.00  0.00    +0.000 A 
ATOM     18  C   UNL     1      60.318  66.675  73.143  0.00  0.00    +0.000 C 
ENDROOT
TORSDOF 0
ENDMDL
