MODEL 1
REMARK VINA RESULT:   -12.809      0.000      0.000
REMARK INTER + INTRA:         -12.809
REMARK INTER:                 -12.809
REMARK INTRA:                   0.000
REMARK UNBOUND:                 0.000
ROOT
REMARK  Name = yohimbine
REMARK                            x       y       z     vdW  Elec       q    Type
REMARK                         _______ _______ _______ _____ _____    ______ ____
ATOM      1  C   UNL     1      63.745  64.657  69.472  0.00  0.00    +0.000 C 
ATOM      2  O   UNL     1      62.955  64.532  69.674  0.00  0.00    +0.000 OA
ATOM      3  C   UNL     1      62.453  64.140  69.150  0.00  0.00    +0.000 C 
ATOM      4  O   UNL     1      62.741  63.874  68.423  0.00  0.00    +0.000 OA
ATOM      5  C   UNL     1      61.663  64.015  69.351  0.00  0.00    +0.000 C 
ATOM      6  C   UNL     1      61.376  64.281  70.077  0.00  0.00    +0.000 C 
ATOM      7  O   UNL     1      61.878  64.673  70.602  0.00  0.00    +0.000 OA
ATOM      8  C   UNL     1      60.586  64.155  70.279  0.00  0.00    +0.000 C 
ATOM      9  C   UNL     1      60.083  63.764  69.755  0.00  0.00    +0.000 C 
ATOM     10  C   UNL     1      60.371  63.498  69.028  0.00  0.00    +0.000 C 
ATOM     11  C   UNL     1      59.869  63.106  68.504  0.00  0.00    +0.000 C 
ATOM     12  N   UNL     1      60.156  62.840  67.778  0.00  0.00    +0.000 NA
ATOM     13  C   UNL     1      59.653  62.449  67.254  0.00  0.00    +0.000 C 
ATOM     14  C   UNL     1      59.941  62.182  66.528  0.00  0.00    +0.000 C 
ATOM     15  C   UNL     1      60.732  62.308  66.326  0.00  0.00    +0.000 C 
ATOM     16  C   UNL     1      61.234  62.700  66.851  0.00  0.00    +0.000 C 
ATOM     17  N   UNL     1      61.981  62.743  66.504  0.00  0.00    +0.000 NA
ATOM     18  C   UNL     1      61.940  62.379  65.765  0.00  0.00    +0.000 C 
ATOM     19  C   UNL     1      61.168  62.110  65.654  0.00  0.00    +0.000 C 
ATOM     20  C   UNL     1      60.962  61.719  64.958  0.00  0.00    +0.000 C 
ATOM     21  C   UNL     1      61.528  61.597  64.370  0.00  0.00    +0.000 C 
ATOM     22  C   UNL     1      62.301  61.866  64.479  0.00  0.00    +0.000 C 
ATOM     23  C   UNL     1      62.506  62.257  65.177  0.00  0.00    +0.000 C 
ATOM     24  C   UNL     1      60.946  62.965  67.576  0.00  0.00    +0.000 C 
ATOM     25  C   UNL     1      61.448  63.357  68.101  0.00  0.00    +0.000 C 
ATOM     26  C   UNL     1      61.160  63.623  68.827  0.00  0.00    +0.000 C 
ENDROOT
TORSDOF 0
ENDMDL
MODEL 2
REMARK VINA RESULT:   -12.304      1.925      4.620
REMARK INTER + INTRA:         -12.304
REMARK INTER:                 -12.304
REMARK INTRA:                   0.000
REMARK UNBOUND:                 0.000
ROOT
REMARK  Name = yohimbine
REMARK                            x       y       z     vdW  Elec       q    Type
REMARK                         _______ _______ _______ _____ _____    ______ ____
ATOM      1  C   UNL     1      61.397  62.768  66.902  0.00  0.00    +0.000 C 
ATOM      2  O   UNL     1      61.115  62.581  67.655  0.00  0.00    +0.000 OA
ATOM      3  C   UNL     1      61.420  62.966  68.317  0.00  0.00    +0.000 C 
ATOM      4  O   UNL     1      62.008  63.539  68.228  0.00  0.00    +0.000 OA
ATOM      5  C   UNL     1      61.137  62.780  69.070  0.00  0.00    +0.000 C 
ATOM      6  C   UNL     1      60.550  62.208  69.159  0.00  0.00    +0.000 C 
ATOM      7  O   UNL     1      60.244  61.822  68.496  0.00  0.00    +0.000 OA
ATOM      8  C   UNL     1      60.267  62.021  69.911  0.00  0.00    +0.000 C 
ATOM      9  C   UNL     1      60.572  62.406  70.574  0.00  0.00    +0.000 C 
ATOM     10  C   UNL     1      61.160  62.979  70.484  0.00  0.00    +0.000 C 
ATOM     11  C   UNL     1      61.465  63.364  71.146  0.00  0.00    +0.000 C 
ATOM     12  N   UNL     1      62.053  63.936  71.058  0.00  0.00    +0.000 NA
ATOM     13  C   UNL     1      62.358  64.321  71.720  0.00  0.00    +0.000 C 
ATOM     14  C   UNL     1      62.946  64.893  71.630  0.00  0.00    +0.000 C 
ATOM     15  C   UNL     1      63.228  65.080  70.878  0.00  0.00    +0.000 C 
ATOM     16  C   UNL     1      62.923  64.694  70.215  0.00  0.00    +0.000 C 
ATOM     17  N   UNL     1      63.306  64.992  69.548  0.00  0.00    +0.000 NA
ATOM     18  C   UNL     1      63.849  65.561  69.798  0.00  0.00    +0.000 C 
ATOM     19  C   UNL     1      63.801  65.616  70.620  0.00  0.00    +0.000 C 
ATOM     20  C   UNL     1      64.284  66.146  71.028  0.00  0.00    +0.000 C 
ATOM     21  C   UNL     1      64.815  66.622  70.614  0.00  0.00    +0.000 C 
ATOM     22  C   UNL     1      64.864  66.568  69.792  0.00  0.00    +0.000 C 
ATOM     23  C   UNL     1      64.380  66.037  69.384  0.00  0.00    +0.000 C 
ATOM     24  C   UNL     1      62.336  64.123  70.305  0.00  0.00    +0.000 C 
ATOM     25  C   UNL     1      62.030  63.737  69.643  0.00  0.00    +0.000 C 
ATOM     26  C   UNL     1      61.443  63.165  69.732  0.00  0.00    +0.000 C 
ENDROOT
TORSDOF 0
ENDMDL
MODEL 3
REMARK VINA RESULT:   -12.299      1.652      2.552
REMARK INTER + INTRA:         -12.299
REMARK INTER:                 -12.299
REMARK INTRA:                   0.000
REMARK UNBOUND:                 0.000
ROOT
REMARK  Name = yohimbine
REMARK                            x       y       z     vdW  Elec       q    Type
REMARK                         _______ _______ _______ _____ _____    ______ ____
ATOM      1  C   UNL     1      62.731  66.227  71.036  0.00  0.00    +0.000 C 
ATOM      2  O   UNL     1      62.436  65.608  71.494  0.00  0.00    +0.000 OA
ATOM      3  C   UNL     1      62.090  64.954  71.129  0.00  0.00    +0.000 C 
ATOM      4  O   UNL     1      62.040  64.919  70.306  0.00  0.00    +0.000 OA
ATOM      5  C   UNL     1      61.794  64.334  71.587  0.00  0.00    +0.000 C 
ATOM      6  C   UNL     1      61.845  64.369  72.409  0.00  0.00    +0.000 C 
ATOM      7  O   UNL     1      62.191  65.023  72.774  0.00  0.00    +0.000 OA
ATOM      8  C   UNL     1      61.549  63.750  72.866  0.00  0.00    +0.000 C 
ATOM      9  C   UNL     1      61.204  63.096  72.502  0.00  0.00    +0.000 C 
ATOM     10  C   UNL     1      61.153  63.061  71.678  0.00  0.00    +0.000 C 
ATOM     11  C   UNL     1      60.808  62.407  71.314  0.00  0.00    +0.000 C 
ATOM     12  N   UNL     1      60.757  62.372  70.491  0.00  0.00    +0.000 NA
ATOM     13  C   UNL     1      60.412  61.718  70.126  0.00  0.00    +0.000 C 
ATOM     14  C   UNL     1      60.362  61.683  69.303  0.00  0.00    +0.000 C 
ATOM     15  C   UNL     1      60.657  62.303  68.845  0.00  0.00    +0.000 C 
ATOM     16  C   UNL     1      61.003  62.957  69.211  0.00  0.00    +0.000 C 
ATOM     17  N   UNL     1      61.245  63.480  68.621  0.00  0.00    +0.000 NA
ATOM     18  C   UNL     1      61.048  63.150  67.891  0.00  0.00    +0.000 C 
ATOM     19  C   UNL     1      60.685  62.422  68.029  0.00  0.00    +0.000 C 
ATOM     20  C   UNL     1      60.427  61.962  67.395  0.00  0.00    +0.000 C 
ATOM     21  C   UNL     1      60.532  62.229  66.622  0.00  0.00    +0.000 C 
ATOM     22  C   UNL     1      60.895  62.957  66.482  0.00  0.00    +0.000 C 
ATOM     23  C   UNL     1      61.153  63.417  67.117  0.00  0.00    +0.000 C 
ATOM     24  C   UNL     1      61.053  62.992  70.033  0.00  0.00    +0.000 C 
ATOM     25  C   UNL     1      61.399  63.646  70.399  0.00  0.00    +0.000 C 
ATOM     26  C   UNL     1      61.449  63.680  71.221  0.00  0.00    +0.000 C 
ENDROOT
TORSDOF 0
ENDMDL
MODEL 4
REMARK VINA RESULT:   -11.954      3.144      5.630
REMARK INTER + INTRA:         -11.954
REMARK INTER:                 -11.954
REMARK INTRA:                   0.000
REMARK UNBOUND:                 0.000
ROOT
REMARK  Name = yohimbine
REMARK                            x       y       z     vdW  Elec       q    Type
REMARK                         _______ _______ _______ _____ _____    ______ ____
ATOM      1  C   UNL     1      61.269  62.877  69.553  0.00  0.00    +0.000 C 
ATOM      2  O   UNL     1      61.054  63.161  70.297  0.00  0.00    +0.000 OA
ATOM      3  C   UNL     1      61.486  63.770  70.647  0.00  0.00    +0.000 C 
ATOM      4  O   UNL     1      62.135  64.095  70.253  0.00  0.00    +0.000 OA
ATOM      5  C   UNL     1      61.271  64.054  71.391  0.00  0.00    +0.000 C 
ATOM      6  C   UNL     1      60.623  63.729  71.784  0.00  0.00    +0.000 C 
ATOM      7  O   UNL     1      60.190  63.119  71.434  0.00  0.00    +0.000 OA
ATOM      8  C   UNL     1      60.408  64.013  72.528  0.00  0.00    +0.000 C 
ATOM      9  C   UNL     1      60.840  64.621  72.879  0.00  0.00    +0.000 C 
ATOM     10  C   UNL     1      61.489  64.947  72.484  0.00  0.00    +0.000 C 
ATOM     11  C   UNL     1      61.921  65.555  72.835  0.00  0.00    +0.000 C 
ATOM     12  N   UNL     1      62.569  65.881  72.441  0.00  0.00    +0.000 NA
ATOM     13  C   UNL     1      63.002  66.489  72.792  0.00  0.00    +0.000 C 
ATOM     14  C   UNL     1      63.650  66.814  72.398  0.00  0.00    +0.000 C 
ATOM     15  C   UNL     1      63.865  66.530  71.654  0.00  0.00    +0.000 C 
ATOM     16  C   UNL     1      63.432  65.921  71.304  0.00  0.00    +0.000 C 
ATOM     17  N   UNL     1      63.773  65.755  70.571  0.00  0.00    +0.000 NA
ATOM     18  C   UNL     1      64.416  66.262  70.468  0.00  0.00    +0.000 C 
ATOM     19  C   UNL     1      64.473  66.741  71.137  0.00  0.00    +0.000 C 
ATOM     20  C   UNL     1      65.071  67.307  71.190  0.00  0.00    +0.000 C 
ATOM     21  C   UNL     1      65.612  67.394  70.573  0.00  0.00    +0.000 C 
ATOM     22  C   UNL     1      65.556  66.915  69.904  0.00  0.00    +0.000 C 
ATOM     23  C   UNL     1      64.957  66.349  69.851  0.00  0.00    +0.000 C 
ATOM     24  C   UNL     1      62.785  65.597  71.697  0.00  0.00    +0.000 C 
ATOM     25  C   UNL     1      62.352  64.987  71.347  0.00  0.00    +0.000 C 
ATOM     26  C   UNL     1      61.704  64.663  71.741  0.00  0.00    +0.000 C 
ENDROOT
TORSDOF 0
ENDMDL
MODEL 5
REMARK VINA RESULT:   -11.867      3.792      5.516
REMARK INTER + INTRA:         -11.867
REMARK INTER:                 -11.867
REMARK INTRA:                   0.000
REMARK UNBOUND:                 0.000
ROOT
REMARK  Name = yohimbine
REMARK                            x       y       z     vdW  Elec       q    Type
REMARK                         _______ _______ _______ _____ _____    ______ ____
ATOM      1  C   UNL     1      59.988  65.507  73.222  0.00  0.00    +0.000 C 
ATOM      2  O   UNL     1      60.146  64.891  72.696  0.00  0.00    +0.000 OA
ATOM      3  C   UNL     1      60.850  64.886  72.266  0.00  0.00    +0.000 C 
ATOM      4  O   UNL     1      61.396  65.498  72.363  0.00  0.00    +0.000 OA
ATOM      5  C   UNL     1      61.008  64.271  71.740  0.00  0.00    +0.000 C 
ATOM      6  C   UNL     1      60.462  63.661  71.645  0.00  0.00    +0.000 C 
ATOM      7  O   UNL     1      59.757  63.665  72.075  0.00  0.00    +0.000 OA
ATOM      8  C   UNL     1      60.620  63.045  71.119  0.00  0.00    +0.000 C 
ATOM      9  C   UNL     1      61.324  63.040  70.689  0.00  0.00    +0.000 C 
ATOM     10  C   UNL     1      61.870  63.651  70.785  0.00  0.00    +0.000 C 
ATOM     11  C   UNL     1      62.574  63.646  70.355  0.00  0.00    +0.000 C 
ATOM     12  N   UNL     1      63.121  64.257  70.450  0.00  0.00    +0.000 NA
ATOM     13  C   UNL     1      63.824  64.252  70.021  0.00  0.00    +0.000 C 
ATOM     14  C   UNL     1      64.370  64.863  70.117  0.00  0.00    +0.000 C 
ATOM     15  C   UNL     1      64.212  65.479  70.643  0.00  0.00    +0.000 C 
ATOM     16  C   UNL     1      63.508  65.483  71.073  0.00  0.00    +0.000 C 
ATOM     17  N   UNL     1      63.503  66.158  71.547  0.00  0.00    +0.000 NA
ATOM     18  C   UNL     1      64.205  66.571  71.410  0.00  0.00    +0.000 C 
ATOM     19  C   UNL     1      64.643  66.151  70.851  0.00  0.00    +0.000 C 
ATOM     20  C   UNL     1      65.377  66.435  70.604  0.00  0.00    +0.000 C 
ATOM     21  C   UNL     1      65.674  67.139  70.916  0.00  0.00    +0.000 C 
ATOM     22  C   UNL     1      65.236  67.559  71.475  0.00  0.00    +0.000 C 
ATOM     23  C   UNL     1      64.501  67.275  71.722  0.00  0.00    +0.000 C 
ATOM     24  C   UNL     1      62.962  64.873  70.977  0.00  0.00    +0.000 C 
ATOM     25  C   UNL     1      62.258  64.877  71.407  0.00  0.00    +0.000 C 
ATOM     26  C   UNL     1      61.712  64.266  71.310  0.00  0.00    +0.000 C 
ENDROOT
TORSDOF 0
ENDMDL
MODEL 6
REMARK VINA RESULT:   -11.861      3.394      4.829
REMARK INTER + INTRA:         -11.861
REMARK INTER:                 -11.861
REMARK INTRA:                   0.000
REMARK UNBOUND:                 0.000
ROOT
REMARK  Name = yohimbine
REMARK                            x       y       z     vdW  Elec       q    Type
REMARK                         _______ _______ _______ _____ _____    ______ ____
ATOM      1  C   UNL     1      64.846  65.959  69.802  0.00  0.00    +0.000 C 
ATOM      2  O   UNL     1      64.489  66.262  70.482  0.00  0.00    +0.000 OA
ATOM      3  C   UNL     1      63.840  65.877  70.814  0.00  0.00    +0.000 C 
ATOM      4  O   UNL     1      63.548  65.187  70.468  0.00  0.00    +0.000 OA
ATOM      5  C   UNL     1      63.483  66.180  71.494  0.00  0.00    +0.000 C 
ATOM      6  C   UNL     1      63.775  66.869  71.839  0.00  0.00    +0.000 C 
ATOM      7  O   UNL     1      64.424  67.255  71.507  0.00  0.00    +0.000 OA
ATOM      8  C   UNL     1      63.418  67.172  72.519  0.00  0.00    +0.000 C 
ATOM      9  C   UNL     1      62.770  66.786  72.851  0.00  0.00    +0.000 C 
ATOM     10  C   UNL     1      62.478  66.096  72.505  0.00  0.00    +0.000 C 
ATOM     11  C   UNL     1      61.829  65.710  72.837  0.00  0.00    +0.000 C 
ATOM     12  N   UNL     1      61.537  65.021  72.491  0.00  0.00    +0.000 NA
ATOM     13  C   UNL     1      60.889  64.635  72.824  0.00  0.00    +0.000 C 
ATOM     14  C   UNL     1      60.597  63.945  72.477  0.00  0.00    +0.000 C 
ATOM     15  C   UNL     1      60.954  63.642  71.798  0.00  0.00    +0.000 C 
ATOM     16  C   UNL     1      61.603  64.028  71.465  0.00  0.00    +0.000 C 
ATOM     17  N   UNL     1      61.839  63.603  70.800  0.00  0.00    +0.000 NA
ATOM     18  C   UNL     1      61.336  62.953  70.720  0.00  0.00    +0.000 C 
ATOM     19  C   UNL     1      60.789  62.977  71.337  0.00  0.00    +0.000 C 
ATOM     20  C   UNL     1      60.212  62.391  71.400  0.00  0.00    +0.000 C 
ATOM     21  C   UNL     1      60.181  61.781  70.846  0.00  0.00    +0.000 C 
ATOM     22  C   UNL     1      60.728  61.756  70.229  0.00  0.00    +0.000 C 
ATOM     23  C   UNL     1      61.305  62.343  70.166  0.00  0.00    +0.000 C 
ATOM     24  C   UNL     1      61.894  64.717  71.812  0.00  0.00    +0.000 C 
ATOM     25  C   UNL     1      62.543  65.104  71.480  0.00  0.00    +0.000 C 
ATOM     26  C   UNL     1      62.834  65.793  71.826  0.00  0.00    +0.000 C 
ENDROOT
TORSDOF 0
ENDMDL
MODEL 7
REMARK VINA RESULT:   -11.690      2.399      5.170
REMARK INTER + INTRA:         -11.690
REMARK INTER:                 -11.690
REMARK INTRA:                   0.000
REMARK UNBOUND:                 0.000
ROOT
REMARK  Name = yohimbine
REMARK                            x       y       z     vdW  Elec       q    Type
REMARK                         _______ _______ _______ _____ _____    ______ ____
ATOM      1  C   UNL     1      60.799  63.424  67.213  0.00  0.00    +0.000 C 
ATOM      2  O   UNL     1      60.760  62.955  67.891  0.00  0.00    +0.000 OA
ATOM      3  C   UNL     1      60.573  63.297  68.618  0.00  0.00    +0.000 C 
ATOM      4  O   UNL     1      60.424  64.107  68.667  0.00  0.00    +0.000 OA
ATOM      5  C   UNL     1      60.534  62.829  69.296  0.00  0.00    +0.000 C 
ATOM      6  C   UNL     1      60.683  62.019  69.247  0.00  0.00    +0.000 C 
ATOM      7  O   UNL     1      60.871  61.677  68.520  0.00  0.00    +0.000 OA
ATOM      8  C   UNL     1      60.644  61.551  69.925  0.00  0.00    +0.000 C 
ATOM      9  C   UNL     1      60.456  61.893  70.652  0.00  0.00    +0.000 C 
ATOM     10  C   UNL     1      60.307  62.703  70.701  0.00  0.00    +0.000 C 
ATOM     11  C   UNL     1      60.119  63.044  71.428  0.00  0.00    +0.000 C 
ATOM     12  N   UNL     1      59.970  63.855  71.477  0.00  0.00    +0.000 NA
ATOM     13  C   UNL     1      59.782  64.196  72.204  0.00  0.00    +0.000 C 
ATOM     14  C   UNL     1      59.633  65.006  72.253  0.00  0.00    +0.000 C 
ATOM     15  C   UNL     1      59.672  65.475  71.575  0.00  0.00    +0.000 C 
ATOM     16  C   UNL     1      59.860  65.132  70.847  0.00  0.00    +0.000 C 
ATOM     17  N   UNL     1      59.858  65.728  70.277  0.00  0.00    +0.000 NA
ATOM     18  C   UNL     1      59.669  66.439  70.652  0.00  0.00    +0.000 C 
ATOM     19  C   UNL     1      59.554  66.282  71.454  0.00  0.00    +0.000 C 
ATOM     20  C   UNL     1      59.357  66.894  71.970  0.00  0.00    +0.000 C 
ATOM     21  C   UNL     1      59.274  67.664  71.685  0.00  0.00    +0.000 C 
ATOM     22  C   UNL     1      59.388  67.822  70.883  0.00  0.00    +0.000 C 
ATOM     23  C   UNL     1      59.586  67.208  70.367  0.00  0.00    +0.000 C 
ATOM     24  C   UNL     1      60.009  64.323  70.799  0.00  0.00    +0.000 C 
ATOM     25  C   UNL     1      60.197  63.980  70.072  0.00  0.00    +0.000 C 
ATOM     26  C   UNL     1      60.346  63.171  70.023  0.00  0.00    +0.000 C 
ENDROOT
TORSDOF 0
ENDMDL
MODEL 8
REMARK VINA RESULT:   -11.663      3.957      5.389
REMARK INTER + INTRA:         -11.663
REMARK INTER:                 -11.663
REMARK INTRA:                   0.000
REMARK UNBOUND:                 0.000
ROOT
REMARK  Name = yohimbine
REMARK                            x       y       z     vdW  Elec       q    Type
REMARK                         _______ _______ _______ _____ _____    ______ ____
ATOM      1  C   UNL     1      62.753  68.234  73.155  0.00  0.00    +0.000 C 
ATOM      2  O   UNL     1      63.343  67.916  72.674  0.00  0.00    +0.000 OA
ATOM      3  C   UNL     1      63.226  67.189  72.304  0.00  0.00    +0.000 C 
ATOM      4  O   UNL     1      62.518  66.779  72.414  0.00  0.00    +0.000 OA
ATOM      5  C   UNL     1      63.816  66.870  71.823  0.00  0.00    +0.000 C 
ATOM      6  C   UNL     1      64.524  67.280  71.714  0.00  0.00    +0.000 C 
ATOM      7  O   UNL     1      64.642  68.008  72.084  0.00  0.00    +0.000 OA
ATOM      8  C   UNL     1      65.114  66.961  71.233  0.00  0.00    +0.000 C 
ATOM      9  C   UNL     1      64.997  66.234  70.862  0.00  0.00    +0.000 C 
ATOM     10  C   UNL     1      64.288  65.825  70.972  0.00  0.00    +0.000 C 
ATOM     11  C   UNL     1      64.171  65.097  70.602  0.00  0.00    +0.000 C 
ATOM     12  N   UNL     1      63.463  64.687  70.711  0.00  0.00    +0.000 NA
ATOM     13  C   UNL     1      63.346  63.960  70.340  0.00  0.00    +0.000 C 
ATOM     14  C   UNL     1      62.638  63.550  70.450  0.00  0.00    +0.000 C 
ATOM     15  C   UNL     1      62.047  63.869  70.931  0.00  0.00    +0.000 C 
ATOM     16  C   UNL     1      62.165  64.597  71.302  0.00  0.00    +0.000 C 
ATOM     17  N   UNL     1      61.489  64.772  71.740  0.00  0.00    +0.000 NA
ATOM     18  C   UNL     1      60.953  64.152  71.641  0.00  0.00    +0.000 C 
ATOM     19  C   UNL     1      61.298  63.594  71.141  0.00  0.00    +0.000 C 
ATOM     20  C   UNL     1      60.886  62.908  70.941  0.00  0.00    +0.000 C 
ATOM     21  C   UNL     1      60.128  62.780  71.241  0.00  0.00    +0.000 C 
ATOM     22  C   UNL     1      59.783  63.337  71.741  0.00  0.00    +0.000 C 
ATOM     23  C   UNL     1      60.196  64.024  71.941  0.00  0.00    +0.000 C 
ATOM     24  C   UNL     1      62.873  65.006  71.192  0.00  0.00    +0.000 C 
ATOM     25  C   UNL     1      62.991  65.734  71.562  0.00  0.00    +0.000 C 
ATOM     26  C   UNL     1      63.698  66.142  71.452  0.00  0.00    +0.000 C 
ENDROOT
TORSDOF 0
ENDMDL
MODEL 9
REMARK VINA RESULT:   -11.250      4.082      4.780
REMARK INTER + INTRA:         -11.250
REMARK INTER:                 -11.250
REMARK INTRA:                   0.000
REMARK UNBOUND:                 0.000
ROOT
REMARK  Name = yohimbine
REMARK                            x       y       z     vdW  Elec       q    Type
REMARK                         _______ _______ _______ _____ _____    ______ ____
ATOM      1  C   UNL     1      59.187  67.656  71.646  0.00  0.00    +0.000 C 
ATOM      2  O   UNL     1      59.126  66.845  71.785  0.00  0.00    +0.000 OA
ATOM      3  C   UNL     1      59.747  66.343  71.579  0.00  0.00    +0.000 C 
ATOM      4  O   UNL     1      60.431  66.653  71.235  0.00  0.00    +0.000 OA
ATOM      5  C   UNL     1      59.686  65.532  71.718  0.00  0.00    +0.000 C 
ATOM      6  C   UNL     1      59.003  65.224  72.062  0.00  0.00    +0.000 C 
ATOM      7  O   UNL     1      58.381  65.726  72.267  0.00  0.00    +0.000 OA
ATOM      8  C   UNL     1      58.942  64.413  72.200  0.00  0.00    +0.000 C 
ATOM      9  C   UNL     1      59.563  63.911  71.995  0.00  0.00    +0.000 C 
ATOM     10  C   UNL     1      60.247  64.220  71.650  0.00  0.00    +0.000 C 
ATOM     11  C   UNL     1      60.868  63.718  71.445  0.00  0.00    +0.000 C 
ATOM     12  N   UNL     1      61.552  64.027  71.101  0.00  0.00    +0.000 NA
ATOM     13  C   UNL     1      62.173  63.525  70.895  0.00  0.00    +0.000 C 
ATOM     14  C   UNL     1      62.856  63.834  70.551  0.00  0.00    +0.000 C 
ATOM     15  C   UNL     1      62.918  64.646  70.412  0.00  0.00    +0.000 C 
ATOM     16  C   UNL     1      62.296  65.147  70.618  0.00  0.00    +0.000 C 
ATOM     17  N   UNL     1      62.512  65.917  70.417  0.00  0.00    +0.000 NA
ATOM     18  C   UNL     1      63.268  65.891  70.087  0.00  0.00    +0.000 C 
ATOM     19  C   UNL     1      63.519  65.106  70.084  0.00  0.00    +0.000 C 
ATOM     20  C   UNL     1      64.261  64.910  69.783  0.00  0.00    +0.000 C 
ATOM     21  C   UNL     1      64.754  65.501  69.484  0.00  0.00    +0.000 C 
ATOM     22  C   UNL     1      64.504  66.287  69.486  0.00  0.00    +0.000 C 
ATOM     23  C   UNL     1      63.760  66.482  69.788  0.00  0.00    +0.000 C 
ATOM     24  C   UNL     1      61.613  64.838  70.962  0.00  0.00    +0.000 C 
ATOM     25  C   UNL     1      60.991  65.340  71.168  0.00  0.00    +0.000 C 
ATOM     26  C   UNL     1      60.308  65.030  71.512  0.00  0.00    +0.000 C 
ENDROOT
TORSDOF 0
ENDMDL
