MODEL 1
REMARK VINA RESULT:   -16.155      0.000      0.000
REMARK INTER + INTRA:         -16.155
REMARK INTER:                 -16.155
REMARK INTRA:                   0.000
REMARK UNBOUND:                 0.000
ROOT
REMARK  Name = zafirlukast
REMARK                            x       y       z     vdW  Elec       q    Type
REMARK                         _______ _______ _______ _____ _____    ______ ____
ATOM      1  C   UNL     1      62.932  69.163  73.059  0.00  0.00    +0.000 C 
ATOM      2  O   UNL     1      63.263  68.510  72.676  0.00  0.00    +0.000 OA
ATOM      3  C   UNL     1      62.801  67.844  72.526  0.00  0.00    +0.000 A 
ATOM      4  C   UNL     1      63.131  67.191  72.144  0.00  0.00    +0.000 A 
ATOM      5  C   UNL     1      63.922  67.206  71.912  0.00  0.00    +0.000 C 
ATOM      6  C   UNL     1      64.252  66.553  71.530  0.00  0.00    +0.000 A 
ATOM      7  C   UNL     1      65.032  66.488  71.267  0.00  0.00    +0.000 A 
ATOM      8  N   UNL     1      65.122  65.746  70.919  0.00  0.00    +0.000 N 
ATOM      9  C   UNL     1      65.814  65.449  70.582  0.00  0.00    +0.000 C 
ATOM     10  C   UNL     1      64.398  65.353  70.966  0.00  0.00    +0.000 A 
ATOM     11  C   UNL     1      63.861  65.852  71.344  0.00  0.00    +0.000 A 
ATOM     12  C   UNL     1      63.084  65.602  71.469  0.00  0.00    +0.000 A 
ATOM     13  C   UNL     1      62.846  64.855  71.216  0.00  0.00    +0.000 A 
ATOM     14  N   UNL     1      62.070  64.605  71.342  0.00  0.00    +0.000 NA
ATOM     15  C   UNL     1      61.830  63.857  71.089  0.00  0.00    +0.000 C 
ATOM     16  O   UNL     1      62.368  63.358  70.711  0.00  0.00    +0.000 OA
ATOM     17  O   UNL     1      61.054  63.608  71.214  0.00  0.00    +0.000 OA
ATOM     18  C   UNL     1      60.815  62.860  70.962  0.00  0.00    +0.000 C 
ATOM     19  C   UNL     1      60.061  62.536  71.048  0.00  0.00    +0.000 C 
ATOM     20  C   UNL     1      60.068  61.780  70.718  0.00  0.00    +0.000 C 
ATOM     21  C   UNL     1      60.827  61.636  70.428  0.00  0.00    +0.000 C 
ATOM     22  C   UNL     1      61.289  62.303  70.578  0.00  0.00    +0.000 C 
ATOM     23  C   UNL     1      63.383  64.356  70.838  0.00  0.00    +0.000 A 
ATOM     24  C   UNL     1      64.159  64.604  70.713  0.00  0.00    +0.000 A 
ATOM     25  C   UNL     1      62.669  66.524  71.994  0.00  0.00    +0.000 A 
ATOM     26  C   UNL     1      61.877  66.510  72.225  0.00  0.00    +0.000 A 
ATOM     27  C   UNL     1      61.548  67.162  72.607  0.00  0.00    +0.000 A 
ATOM     28  C   UNL     1      62.009  67.829  72.758  0.00  0.00    +0.000 A 
ATOM     29  C   UNL     1      60.755  67.148  72.839  0.00  0.00    +0.000 C 
ATOM     30  O   UNL     1      60.426  67.800  73.221  0.00  0.00    +0.000 OA
ATOM     31  N   UNL     1      60.294  66.481  72.689  0.00  0.00    +0.000 NA
ATOM     32  S   UNL     1      60.624  65.828  72.306  0.00  0.00    +0.000 S 
ATOM     33  O   UNL     1      61.348  66.222  72.259  0.00  0.00    +0.000 OA
ATOM     34  O   UNL     1      60.954  65.176  71.924  0.00  0.00    +0.000 OA
ATOM     35  C   UNL     1      59.901  65.435  72.353  0.00  0.00    +0.000 A 
ATOM     36  C   UNL     1      59.253  65.803  72.708  0.00  0.00    +0.000 A 
ATOM     37  C   UNL     1      59.329  66.564  73.015  0.00  0.00    +0.000 C 
ATOM     38  C   UNL     1      58.530  65.410  72.755  0.00  0.00    +0.000 A 
ATOM     39  C   UNL     1      58.453  64.647  72.447  0.00  0.00    +0.000 A 
ATOM     40  C   UNL     1      59.101  64.279  72.093  0.00  0.00    +0.000 A 
ATOM     41  C   UNL     1      59.825  64.673  72.046  0.00  0.00    +0.000 A 
ENDROOT
TORSDOF 0
ENDMDL
MODEL 2
REMARK VINA RESULT:   -14.694      2.256      4.869
REMARK INTER + INTRA:         -14.694
REMARK INTER:                 -14.694
REMARK INTRA:                   0.000
REMARK UNBOUND:                 0.000
ROOT
REMARK  Name = zafirlukast
REMARK                            x       y       z     vdW  Elec       q    Type
REMARK                         _______ _______ _______ _____ _____    ______ ____
ATOM      1  C   UNL     1      61.708  60.626  72.049  0.00  0.00    +0.000 C 
ATOM      2  O   UNL     1      61.429  60.960  71.348  0.00  0.00    +0.000 OA
ATOM      3  C   UNL     1      61.373  61.780  71.276  0.00  0.00    +0.000 A 
ATOM      4  C   UNL     1      61.093  62.115  70.576  0.00  0.00    +0.000 A 
ATOM      5  C   UNL     1      60.869  61.629  69.947  0.00  0.00    +0.000 C 
ATOM      6  C   UNL     1      60.590  61.963  69.247  0.00  0.00    +0.000 A 
ATOM      7  C   UNL     1      60.347  61.550  68.575  0.00  0.00    +0.000 A 
ATOM      8  N   UNL     1      60.111  62.101  68.009  0.00  0.00    +0.000 N 
ATOM      9  C   UNL     1      59.828  61.928  67.253  0.00  0.00    +0.000 C 
ATOM     10  C   UNL     1      60.208  62.854  68.330  0.00  0.00    +0.000 A 
ATOM     11  C   UNL     1      60.504  62.769  69.095  0.00  0.00    +0.000 A 
ATOM     12  C   UNL     1      60.656  63.437  69.555  0.00  0.00    +0.000 A 
ATOM     13  C   UNL     1      60.513  64.190  69.250  0.00  0.00    +0.000 A 
ATOM     14  N   UNL     1      60.666  64.857  69.709  0.00  0.00    +0.000 NA
ATOM     15  C   UNL     1      60.523  65.610  69.404  0.00  0.00    +0.000 C 
ATOM     16  O   UNL     1      60.227  65.695  68.638  0.00  0.00    +0.000 OA
ATOM     17  O   UNL     1      60.675  66.278  69.863  0.00  0.00    +0.000 OA
ATOM     18  C   UNL     1      60.533  67.031  69.558  0.00  0.00    +0.000 C 
ATOM     19  C   UNL     1      60.658  67.746  69.950  0.00  0.00    +0.000 C 
ATOM     20  C   UNL     1      60.442  68.358  69.441  0.00  0.00    +0.000 C 
ATOM     21  C   UNL     1      60.182  68.021  68.733  0.00  0.00    +0.000 C 
ATOM     22  C   UNL     1      60.239  67.201  68.805  0.00  0.00    +0.000 C 
ATOM     23  C   UNL     1      60.218  64.275  68.484  0.00  0.00    +0.000 A 
ATOM     24  C   UNL     1      60.065  63.607  68.024  0.00  0.00    +0.000 A 
ATOM     25  C   UNL     1      61.037  62.934  70.504  0.00  0.00    +0.000 A 
ATOM     26  C   UNL     1      61.261  63.420  71.132  0.00  0.00    +0.000 A 
ATOM     27  C   UNL     1      61.540  63.086  71.832  0.00  0.00    +0.000 A 
ATOM     28  C   UNL     1      61.596  62.266  71.905  0.00  0.00    +0.000 A 
ATOM     29  C   UNL     1      61.764  63.571  72.461  0.00  0.00    +0.000 C 
ATOM     30  O   UNL     1      62.043  63.237  73.161  0.00  0.00    +0.000 OA
ATOM     31  N   UNL     1      61.708  64.391  72.389  0.00  0.00    +0.000 NA
ATOM     32  S   UNL     1      61.428  64.726  71.688  0.00  0.00    +0.000 S 
ATOM     33  O   UNL     1      61.331  63.972  71.367  0.00  0.00    +0.000 OA
ATOM     34  O   UNL     1      61.148  65.060  70.988  0.00  0.00    +0.000 OA
ATOM     35  C   UNL     1      61.524  65.479  72.009  0.00  0.00    +0.000 A 
ATOM     36  C   UNL     1      61.815  65.567  72.776  0.00  0.00    +0.000 A 
ATOM     37  C   UNL     1      62.009  64.900  73.222  0.00  0.00    +0.000 C 
ATOM     38  C   UNL     1      61.912  66.320  73.098  0.00  0.00    +0.000 A 
ATOM     39  C   UNL     1      61.718  66.987  72.652  0.00  0.00    +0.000 A 
ATOM     40  C   UNL     1      61.427  66.899  71.884  0.00  0.00    +0.000 A 
ATOM     41  C   UNL     1      61.331  66.145  71.563  0.00  0.00    +0.000 A 
ENDROOT
TORSDOF 0
ENDMDL
MODEL 3
REMARK VINA RESULT:   -13.737      1.529      4.198
REMARK INTER + INTRA:         -13.737
REMARK INTER:                 -13.737
REMARK INTRA:                   0.000
REMARK UNBOUND:                 0.000
ROOT
REMARK  Name = zafirlukast
REMARK                            x       y       z     vdW  Elec       q    Type
REMARK                         _______ _______ _______ _____ _____    ______ ____
ATOM      1  C   UNL     1      65.141  64.627  69.078  0.00  0.00    +0.000 C 
ATOM      2  O   UNL     1      64.348  64.400  69.099  0.00  0.00    +0.000 OA
ATOM      3  C   UNL     1      63.819  64.795  69.593  0.00  0.00    +0.000 A 
ATOM      4  C   UNL     1      63.026  64.568  69.614  0.00  0.00    +0.000 A 
ATOM      5  C   UNL     1      62.763  63.945  69.141  0.00  0.00    +0.000 C 
ATOM      6  C   UNL     1      61.970  63.719  69.162  0.00  0.00    +0.000 A 
ATOM      7  C   UNL     1      61.628  63.109  68.723  0.00  0.00    +0.000 A 
ATOM      8  N   UNL     1      60.827  63.075  68.916  0.00  0.00    +0.000 N 
ATOM      9  C   UNL     1      60.275  62.545  68.605  0.00  0.00    +0.000 C 
ATOM     10  C   UNL     1      60.674  63.662  69.474  0.00  0.00    +0.000 A 
ATOM     11  C   UNL     1      61.380  64.060  69.626  0.00  0.00    +0.000 A 
ATOM     12  C   UNL     1      61.394  64.682  70.168  0.00  0.00    +0.000 A 
ATOM     13  C   UNL     1      60.703  64.907  70.557  0.00  0.00    +0.000 A 
ATOM     14  N   UNL     1      60.717  65.528  71.098  0.00  0.00    +0.000 NA
ATOM     15  C   UNL     1      60.025  65.753  71.488  0.00  0.00    +0.000 C 
ATOM     16  O   UNL     1      59.319  65.356  71.335  0.00  0.00    +0.000 OA
ATOM     17  O   UNL     1      60.040  66.375  72.029  0.00  0.00    +0.000 OA
ATOM     18  C   UNL     1      59.348  66.600  72.419  0.00  0.00    +0.000 C 
ATOM     19  C   UNL     1      59.277  67.208  72.972  0.00  0.00    +0.000 C 
ATOM     20  C   UNL     1      58.491  67.240  73.218  0.00  0.00    +0.000 C 
ATOM     21  C   UNL     1      58.074  66.650  72.817  0.00  0.00    +0.000 C 
ATOM     22  C   UNL     1      58.604  66.255  72.323  0.00  0.00    +0.000 C 
ATOM     23  C   UNL     1      59.996  64.509  70.404  0.00  0.00    +0.000 A 
ATOM     24  C   UNL     1      59.981  63.887  69.863  0.00  0.00    +0.000 A 
ATOM     25  C   UNL     1      62.497  64.964  70.108  0.00  0.00    +0.000 A 
ATOM     26  C   UNL     1      62.760  65.586  70.581  0.00  0.00    +0.000 A 
ATOM     27  C   UNL     1      63.552  65.813  70.560  0.00  0.00    +0.000 A 
ATOM     28  C   UNL     1      64.082  65.418  70.066  0.00  0.00    +0.000 A 
ATOM     29  C   UNL     1      63.817  66.436  71.033  0.00  0.00    +0.000 C 
ATOM     30  O   UNL     1      64.609  66.663  71.012  0.00  0.00    +0.000 OA
ATOM     31  N   UNL     1      63.287  66.831  71.527  0.00  0.00    +0.000 NA
ATOM     32  S   UNL     1      62.494  66.604  71.548  0.00  0.00    +0.000 S 
ATOM     33  O   UNL     1      62.647  66.016  70.989  0.00  0.00    +0.000 OA
ATOM     34  O   UNL     1      61.701  66.377  71.569  0.00  0.00    +0.000 OA
ATOM     35  C   UNL     1      62.340  67.191  72.106  0.00  0.00    +0.000 A 
ATOM     36  C   UNL     1      62.950  67.682  72.367  0.00  0.00    +0.000 A 
ATOM     37  C   UNL     1      63.713  67.585  72.069  0.00  0.00    +0.000 C 
ATOM     38  C   UNL     1      62.797  68.270  72.925  0.00  0.00    +0.000 A 
ATOM     39  C   UNL     1      62.033  68.367  73.223  0.00  0.00    +0.000 A 
ATOM     40  C   UNL     1      61.423  67.876  72.961  0.00  0.00    +0.000 A 
ATOM     41  C   UNL     1      61.577  67.288  72.403  0.00  0.00    +0.000 A 
ENDROOT
TORSDOF 0
ENDMDL
MODEL 4
REMARK VINA RESULT:   -13.254     24.837     26.736
REMARK INTER + INTRA:         -13.254
REMARK INTER:                 -13.254
REMARK INTRA:                   0.000
REMARK UNBOUND:                 0.000
ROOT
REMARK  Name = zafirlukast
REMARK                            x       y       z     vdW  Elec       q    Type
REMARK                         _______ _______ _______ _____ _____    ______ ____
ATOM      1  C   UNL     1      68.872  82.252  55.351  0.00  0.00    +0.000 C 
ATOM      2  O   UNL     1      68.624  81.907  54.644  0.00  0.00    +0.000 OA
ATOM      3  C   UNL     1      69.181  81.657  54.090  0.00  0.00    +0.000 A 
ATOM      4  C   UNL     1      68.932  81.311  53.383  0.00  0.00    +0.000 A 
ATOM      5  C   UNL     1      68.127  81.216  53.231  0.00  0.00    +0.000 C 
ATOM      6  C   UNL     1      67.879  80.871  52.524  0.00  0.00    +0.000 A 
ATOM      7  C   UNL     1      67.096  80.741  52.296  0.00  0.00    +0.000 A 
ATOM      8  N   UNL     1      67.103  80.385  51.552  0.00  0.00    +0.000 N 
ATOM      9  C   UNL     1      66.440  80.159  51.117  0.00  0.00    +0.000 C 
ATOM     10  C   UNL     1      67.889  80.296  51.320  0.00  0.00    +0.000 A 
ATOM     11  C   UNL     1      68.368  80.596  51.921  0.00  0.00    +0.000 A 
ATOM     12  C   UNL     1      69.190  80.580  51.839  0.00  0.00    +0.000 A 
ATOM     13  C   UNL     1      69.531  80.263  51.159  0.00  0.00    +0.000 A 
ATOM     14  N   UNL     1      70.351  80.247  51.078  0.00  0.00    +0.000 NA
ATOM     15  C   UNL     1      70.693  79.931  50.398  0.00  0.00    +0.000 C 
ATOM     16  O   UNL     1      70.214  79.630  49.797  0.00  0.00    +0.000 OA
ATOM     17  O   UNL     1      71.514  79.914  50.317  0.00  0.00    +0.000 OA
ATOM     18  C   UNL     1      71.856  79.598  49.636  0.00  0.00    +0.000 C 
ATOM     19  C   UNL     1      72.664  79.544  49.478  0.00  0.00    +0.000 C 
ATOM     20  C   UNL     1      72.757  79.193  48.738  0.00  0.00    +0.000 C 
ATOM     21  C   UNL     1      72.005  79.028  48.437  0.00  0.00    +0.000 C 
ATOM     22  C   UNL     1      71.449  79.279  48.993  0.00  0.00    +0.000 C 
ATOM     23  C   UNL     1      69.052  79.963  50.559  0.00  0.00    +0.000 A 
ATOM     24  C   UNL     1      68.231  79.979  50.639  0.00  0.00    +0.000 A 
ATOM     25  C   UNL     1      69.489  81.061  52.828  0.00  0.00    +0.000 A 
ATOM     26  C   UNL     1      70.295  81.156  52.980  0.00  0.00    +0.000 A 
ATOM     27  C   UNL     1      70.543  81.501  53.686  0.00  0.00    +0.000 A 
ATOM     28  C   UNL     1      69.986  81.751  54.242  0.00  0.00    +0.000 A 
ATOM     29  C   UNL     1      71.348  81.596  53.839  0.00  0.00    +0.000 C 
ATOM     30  O   UNL     1      71.597  81.941  54.546  0.00  0.00    +0.000 OA
ATOM     31  N   UNL     1      71.905  81.345  53.284  0.00  0.00    +0.000 NA
ATOM     32  S   UNL     1      71.656  81.000  52.577  0.00  0.00    +0.000 S 
ATOM     33  O   UNL     1      70.870  81.090  52.809  0.00  0.00    +0.000 OA
ATOM     34  O   UNL     1      71.408  80.655  51.870  0.00  0.00    +0.000 OA
ATOM     35  C   UNL     1      72.442  80.910  52.344  0.00  0.00    +0.000 A 
ATOM     36  C   UNL     1      73.051  81.164  52.840  0.00  0.00    +0.000 A 
ATOM     37  C   UNL     1      72.873  81.508  53.569  0.00  0.00    +0.000 C 
ATOM     38  C   UNL     1      73.837  81.075  52.608  0.00  0.00    +0.000 A 
ATOM     39  C   UNL     1      74.016  80.731  51.879  0.00  0.00    +0.000 A 
ATOM     40  C   UNL     1      73.407  80.477  51.383  0.00  0.00    +0.000 A 
ATOM     41  C   UNL     1      72.620  80.567  51.616  0.00  0.00    +0.000 A 
ENDROOT
TORSDOF 0
ENDMDL
