MODEL 1
REMARK VINA RESULT:   -10.623      0.000      0.000
REMARK INTER + INTRA:         -10.623
REMARK INTER:                 -10.623
REMARK INTRA:                   0.000
REMARK UNBOUND:                 0.000
ROOT
REMARK  Name = zaleplon
REMARK                            x       y       z     vdW  Elec       q    Type
REMARK                         _______ _______ _______ _____ _____    ______ ____
ATOM      1  C   UNL     1      60.894  61.078  64.218  0.00  0.00    +0.000 C 
ATOM      2  C   UNL     1      60.513  61.396  64.877  0.00  0.00    +0.000 C 
ATOM      3  N   UNL     1      60.944  61.822  65.437  0.00  0.00    +0.000 N 
ATOM      4  C   UNL     1      61.755  61.931  65.338  0.00  0.00    +0.000 C 
ATOM      5  C   UNL     1      62.185  62.357  65.899  0.00  0.00    +0.000 C 
ATOM      6  O   UNL     1      62.137  61.613  64.680  0.00  0.00    +0.000 OA
ATOM      7  C   UNL     1      60.561  62.140  66.096  0.00  0.00    +0.000 A 
ATOM      8  C   UNL     1      60.992  62.566  66.656  0.00  0.00    +0.000 A 
ATOM      9  C   UNL     1      60.611  62.885  67.315  0.00  0.00    +0.000 A 
ATOM     10  C   UNL     1      59.798  62.776  67.414  0.00  0.00    +0.000 A 
ATOM     11  C   UNL     1      59.368  62.350  66.853  0.00  0.00    +0.000 A 
ATOM     12  C   UNL     1      59.750  62.032  66.195  0.00  0.00    +0.000 A 
ATOM     13  C   UNL     1      61.041  63.310  67.874  0.00  0.00    +0.000 A 
ATOM     14  C   UNL     1      61.853  63.419  67.776  0.00  0.00    +0.000 A 
ATOM     15  C   UNL     1      62.283  63.845  68.336  0.00  0.00    +0.000 A 
ATOM     16  N   UNL     1      61.902  64.163  68.995  0.00  0.00    +0.000 NA
ATOM     17  C   UNL     1      61.090  64.055  69.094  0.00  0.00    +0.000 A 
ATOM     18  C   UNL     1      60.568  64.302  69.683  0.00  0.00    +0.000 A 
ATOM     19  C   UNL     1      59.815  64.028  69.487  0.00  0.00    +0.000 A 
ATOM     20  N   UNL     1      59.871  63.612  68.776  0.00  0.00    +0.000 NA
ATOM     21  N   UNL     1      60.659  63.629  68.534  0.00  0.00    +0.000 N 
ATOM     22  C   UNL     1      60.764  64.745  70.351  0.00  0.00    +0.000 C 
ATOM     23  N   UNL     1      60.960  65.187  71.018  0.00  0.00    +0.000 NA
ENDROOT
TORSDOF 0
ENDMDL
MODEL 2
REMARK VINA RESULT:   -10.530      4.215      5.998
REMARK INTER + INTRA:         -10.530
REMARK INTER:                 -10.530
REMARK INTRA:                   0.000
REMARK UNBOUND:                 0.000
ROOT
REMARK  Name = zaleplon
REMARK                            x       y       z     vdW  Elec       q    Type
REMARK                         _______ _______ _______ _____ _____    ______ ____
ATOM      1  C   UNL     1      66.238  67.626  70.236  0.00  0.00    +0.000 C 
ATOM      2  C   UNL     1      65.756  66.987  70.039  0.00  0.00    +0.000 C 
ATOM      3  N   UNL     1      65.128  66.775  70.531  0.00  0.00    +0.000 N 
ATOM      4  C   UNL     1      64.984  67.203  71.220  0.00  0.00    +0.000 C 
ATOM      5  C   UNL     1      64.356  66.992  71.713  0.00  0.00    +0.000 C 
ATOM      6  O   UNL     1      65.466  67.843  71.419  0.00  0.00    +0.000 OA
ATOM      7  C   UNL     1      64.646  66.135  70.332  0.00  0.00    +0.000 A 
ATOM      8  C   UNL     1      64.019  65.924  70.825  0.00  0.00    +0.000 A 
ATOM      9  C   UNL     1      63.536  65.285  70.627  0.00  0.00    +0.000 A 
ATOM     10  C   UNL     1      63.682  64.857  69.937  0.00  0.00    +0.000 A 
ATOM     11  C   UNL     1      64.309  65.068  69.444  0.00  0.00    +0.000 A 
ATOM     12  C   UNL     1      64.791  65.708  69.643  0.00  0.00    +0.000 A 
ATOM     13  C   UNL     1      62.910  65.074  71.119  0.00  0.00    +0.000 A 
ATOM     14  C   UNL     1      62.764  65.501  71.809  0.00  0.00    +0.000 A 
ATOM     15  C   UNL     1      62.137  65.290  72.302  0.00  0.00    +0.000 A 
ATOM     16  N   UNL     1      61.655  64.651  72.104  0.00  0.00    +0.000 NA
ATOM     17  C   UNL     1      61.800  64.223  71.414  0.00  0.00    +0.000 A 
ATOM     18  C   UNL     1      61.421  63.572  71.078  0.00  0.00    +0.000 A 
ATOM     19  C   UNL     1      61.813  63.380  70.379  0.00  0.00    +0.000 A 
ATOM     20  N   UNL     1      62.436  63.914  70.282  0.00  0.00    +0.000 NA
ATOM     21  N   UNL     1      62.427  64.434  70.921  0.00  0.00    +0.000 N 
ATOM     22  C   UNL     1      60.764  63.180  71.388  0.00  0.00    +0.000 C 
ATOM     23  N   UNL     1      60.107  62.789  71.698  0.00  0.00    +0.000 NA
ENDROOT
TORSDOF 0
ENDMDL
MODEL 3
REMARK VINA RESULT:   -10.489      4.300      6.032
REMARK INTER + INTRA:         -10.489
REMARK INTER:                 -10.489
REMARK INTRA:                   0.000
REMARK UNBOUND:                 0.000
ROOT
REMARK  Name = zaleplon
REMARK                            x       y       z     vdW  Elec       q    Type
REMARK                         _______ _______ _______ _____ _____    ______ ____
ATOM      1  C   UNL     1      60.634  63.404  72.120  0.00  0.00    +0.000 C 
ATOM      2  C   UNL     1      61.152  64.039  72.216  0.00  0.00    +0.000 C 
ATOM      3  N   UNL     1      61.745  64.176  71.659  0.00  0.00    +0.000 N 
ATOM      4  C   UNL     1      61.819  63.679  71.005  0.00  0.00    +0.000 C 
ATOM      5  C   UNL     1      62.412  63.817  70.448  0.00  0.00    +0.000 C 
ATOM      6  O   UNL     1      61.302  63.044  70.908  0.00  0.00    +0.000 OA
ATOM      7  C   UNL     1      62.263  64.812  71.756  0.00  0.00    +0.000 A 
ATOM      8  C   UNL     1      62.855  64.949  71.199  0.00  0.00    +0.000 A 
ATOM      9  C   UNL     1      63.373  65.584  71.295  0.00  0.00    +0.000 A 
ATOM     10  C   UNL     1      63.298  66.081  71.950  0.00  0.00    +0.000 A 
ATOM     11  C   UNL     1      62.706  65.944  72.507  0.00  0.00    +0.000 A 
ATOM     12  C   UNL     1      62.188  65.309  72.410  0.00  0.00    +0.000 A 
ATOM     13  C   UNL     1      63.965  65.721  70.738  0.00  0.00    +0.000 A 
ATOM     14  C   UNL     1      64.040  65.224  70.084  0.00  0.00    +0.000 A 
ATOM     15  C   UNL     1      64.633  65.362  69.527  0.00  0.00    +0.000 A 
ATOM     16  N   UNL     1      65.150  65.996  69.624  0.00  0.00    +0.000 NA
ATOM     17  C   UNL     1      65.076  66.494  70.278  0.00  0.00    +0.000 A 
ATOM     18  C   UNL     1      65.502  67.158  70.517  0.00  0.00    +0.000 A 
ATOM     19  C   UNL     1      65.174  67.431  71.223  0.00  0.00    +0.000 A 
ATOM     20  N   UNL     1      64.543  66.935  71.419  0.00  0.00    +0.000 NA
ATOM     21  N   UNL     1      64.483  66.357  70.835  0.00  0.00    +0.000 N 
ATOM     22  C   UNL     1      66.145  67.491  70.121  0.00  0.00    +0.000 C 
ATOM     23  N   UNL     1      66.787  67.824  69.725  0.00  0.00    +0.000 NA
ENDROOT
TORSDOF 0
ENDMDL
MODEL 4
REMARK VINA RESULT:   -10.358      2.397      4.760
REMARK INTER + INTRA:         -10.358
REMARK INTER:                 -10.358
REMARK INTRA:                   0.000
REMARK UNBOUND:                 0.000
ROOT
REMARK  Name = zaleplon
REMARK                            x       y       z     vdW  Elec       q    Type
REMARK                         _______ _______ _______ _____ _____    ______ ____
ATOM      1  C   UNL     1      61.621  63.458  73.134  0.00  0.00    +0.000 C 
ATOM      2  C   UNL     1      61.291  63.031  72.510  0.00  0.00    +0.000 C 
ATOM      3  N   UNL     1      61.444  63.255  71.730  0.00  0.00    +0.000 N 
ATOM      4  C   UNL     1      61.926  63.906  71.576  0.00  0.00    +0.000 C 
ATOM      5  C   UNL     1      62.078  64.130  70.796  0.00  0.00    +0.000 C 
ATOM      6  O   UNL     1      62.256  64.333  72.199  0.00  0.00    +0.000 OA
ATOM      7  C   UNL     1      61.114  62.827  71.107  0.00  0.00    +0.000 A 
ATOM      8  C   UNL     1      61.266  63.051  70.327  0.00  0.00    +0.000 A 
ATOM      9  C   UNL     1      60.937  62.625  69.703  0.00  0.00    +0.000 A 
ATOM     10  C   UNL     1      60.454  61.973  69.859  0.00  0.00    +0.000 A 
ATOM     11  C   UNL     1      60.301  61.749  70.638  0.00  0.00    +0.000 A 
ATOM     12  C   UNL     1      60.632  62.177  71.262  0.00  0.00    +0.000 A 
ATOM     13  C   UNL     1      61.089  62.848  68.925  0.00  0.00    +0.000 A 
ATOM     14  C   UNL     1      61.571  63.499  68.769  0.00  0.00    +0.000 A 
ATOM     15  C   UNL     1      61.724  63.723  67.990  0.00  0.00    +0.000 A 
ATOM     16  N   UNL     1      61.394  63.296  67.366  0.00  0.00    +0.000 NA
ATOM     17  C   UNL     1      60.911  62.645  67.521  0.00  0.00    +0.000 A 
ATOM     18  C   UNL     1      60.513  62.122  67.023  0.00  0.00    +0.000 A 
ATOM     19  C   UNL     1      60.114  61.575  67.494  0.00  0.00    +0.000 A 
ATOM     20  N   UNL     1      60.266  61.760  68.284  0.00  0.00    +0.000 NA
ATOM     21  N   UNL     1      60.759  62.421  68.300  0.00  0.00    +0.000 N 
ATOM     22  C   UNL     1      60.513  62.143  66.198  0.00  0.00    +0.000 C 
ATOM     23  N   UNL     1      60.513  62.164  65.374  0.00  0.00    +0.000 NA
ENDROOT
TORSDOF 0
ENDMDL
MODEL 5
REMARK VINA RESULT:   -10.203      2.816      5.672
REMARK INTER + INTRA:         -10.203
REMARK INTER:                 -10.203
REMARK INTRA:                   0.000
REMARK UNBOUND:                 0.000
ROOT
REMARK  Name = zaleplon
REMARK                            x       y       z     vdW  Elec       q    Type
REMARK                         _______ _______ _______ _____ _____    ______ ____
ATOM      1  C   UNL     1      58.783  66.965  73.176  0.00  0.00    +0.000 C 
ATOM      2  C   UNL     1      58.993  66.212  72.914  0.00  0.00    +0.000 C 
ATOM      3  N   UNL     1      59.203  66.091  72.126  0.00  0.00    +0.000 N 
ATOM      4  C   UNL     1      59.203  66.725  71.598  0.00  0.00    +0.000 C 
ATOM      5  C   UNL     1      59.413  66.604  70.810  0.00  0.00    +0.000 C 
ATOM      6  O   UNL     1      58.993  67.479  71.858  0.00  0.00    +0.000 OA
ATOM      7  C   UNL     1      59.412  65.337  71.866  0.00  0.00    +0.000 A 
ATOM      8  C   UNL     1      59.622  65.216  71.077  0.00  0.00    +0.000 A 
ATOM      9  C   UNL     1      59.832  64.462  70.816  0.00  0.00    +0.000 A 
ATOM     10  C   UNL     1      59.832  63.828  71.345  0.00  0.00    +0.000 A 
ATOM     11  C   UNL     1      59.622  63.949  72.133  0.00  0.00    +0.000 A 
ATOM     12  C   UNL     1      59.412  64.703  72.393  0.00  0.00    +0.000 A 
ATOM     13  C   UNL     1      60.042  64.342  70.028  0.00  0.00    +0.000 A 
ATOM     14  C   UNL     1      60.042  64.976  69.500  0.00  0.00    +0.000 A 
ATOM     15  C   UNL     1      60.252  64.855  68.711  0.00  0.00    +0.000 A 
ATOM     16  N   UNL     1      60.462  64.101  68.451  0.00  0.00    +0.000 NA
ATOM     17  C   UNL     1      60.462  63.467  68.979  0.00  0.00    +0.000 A 
ATOM     18  C   UNL     1      60.641  62.668  68.882  0.00  0.00    +0.000 A 
ATOM     19  C   UNL     1      60.543  62.295  69.610  0.00  0.00    +0.000 A 
ATOM     20  N   UNL     1      60.302  62.863  70.158  0.00  0.00    +0.000 NA
ATOM     21  N   UNL     1      60.252  63.587  69.767  0.00  0.00    +0.000 N 
ATOM     22  C   UNL     1      60.879  62.306  68.179  0.00  0.00    +0.000 C 
ATOM     23  N   UNL     1      61.115  61.944  67.477  0.00  0.00    +0.000 NA
ENDROOT
TORSDOF 0
ENDMDL
MODEL 6
REMARK VINA RESULT:   -10.042      4.432      6.512
REMARK INTER + INTRA:         -10.042
REMARK INTER:                 -10.042
REMARK INTRA:                   0.000
REMARK UNBOUND:                 0.000
ROOT
REMARK  Name = zaleplon
REMARK                            x       y       z     vdW  Elec       q    Type
REMARK                         _______ _______ _______ _____ _____    ______ ____
ATOM      1  C   UNL     1      63.061  68.665  73.066  0.00  0.00    +0.000 C 
ATOM      2  C   UNL     1      62.465  68.096  73.026  0.00  0.00    +0.000 C 
ATOM      3  N   UNL     1      62.592  67.392  72.616  0.00  0.00    +0.000 N 
ATOM      4  C   UNL     1      63.316  67.256  72.246  0.00  0.00    +0.000 C 
ATOM      5  C   UNL     1      63.444  66.552  71.835  0.00  0.00    +0.000 C 
ATOM      6  O   UNL     1      63.914  67.824  72.285  0.00  0.00    +0.000 OA
ATOM      7  C   UNL     1      61.995  66.824  72.576  0.00  0.00    +0.000 A 
ATOM      8  C   UNL     1      62.122  66.120  72.166  0.00  0.00    +0.000 A 
ATOM      9  C   UNL     1      61.526  65.551  72.126  0.00  0.00    +0.000 A 
ATOM     10  C   UNL     1      60.801  65.688  72.497  0.00  0.00    +0.000 A 
ATOM     11  C   UNL     1      60.673  66.392  72.907  0.00  0.00    +0.000 A 
ATOM     12  C   UNL     1      61.271  66.960  72.947  0.00  0.00    +0.000 A 
ATOM     13  C   UNL     1      61.653  64.848  71.716  0.00  0.00    +0.000 A 
ATOM     14  C   UNL     1      62.377  64.711  71.345  0.00  0.00    +0.000 A 
ATOM     15  C   UNL     1      62.505  64.007  70.935  0.00  0.00    +0.000 A 
ATOM     16  N   UNL     1      61.908  63.440  70.895  0.00  0.00    +0.000 NA
ATOM     17  C   UNL     1      61.183  63.575  71.266  0.00  0.00    +0.000 A 
ATOM     18  C   UNL     1      60.498  63.121  71.320  0.00  0.00    +0.000 A 
ATOM     19  C   UNL     1      59.946  63.543  71.764  0.00  0.00    +0.000 A 
ATOM     20  N   UNL     1      60.292  64.260  71.984  0.00  0.00    +0.000 NA
ATOM     21  N   UNL     1      61.056  64.279  71.676  0.00  0.00    +0.000 N 
ATOM     22  C   UNL     1      60.383  62.373  70.989  0.00  0.00    +0.000 C 
ATOM     23  N   UNL     1      60.269  61.627  70.658  0.00  0.00    +0.000 NA
ENDROOT
TORSDOF 0
ENDMDL
MODEL 7
REMARK VINA RESULT:    -9.603      4.617      6.143
REMARK INTER + INTRA:          -9.603
REMARK INTER:                  -9.603
REMARK INTRA:                   0.000
REMARK UNBOUND:                 0.000
ROOT
REMARK  Name = zaleplon
REMARK                            x       y       z     vdW  Elec       q    Type
REMARK                         _______ _______ _______ _____ _____    ______ ____
ATOM      1  C   UNL     1      57.502  65.861  73.222  0.00  0.00    +0.000 C 
ATOM      2  C   UNL     1      58.057  65.379  72.847  0.00  0.00    +0.000 C 
ATOM      3  N   UNL     1      58.792  65.686  72.634  0.00  0.00    +0.000 N 
ATOM      4  C   UNL     1      58.973  66.474  72.796  0.00  0.00    +0.000 C 
ATOM      5  C   UNL     1      59.709  66.780  72.582  0.00  0.00    +0.000 C 
ATOM      6  O   UNL     1      58.419  66.956  73.171  0.00  0.00    +0.000 OA
ATOM      7  C   UNL     1      59.347  65.203  72.259  0.00  0.00    +0.000 A 
ATOM      8  C   UNL     1      60.082  65.510  72.046  0.00  0.00    +0.000 A 
ATOM      9  C   UNL     1      60.637  65.028  71.671  0.00  0.00    +0.000 A 
ATOM     10  C   UNL     1      60.456  64.239  71.509  0.00  0.00    +0.000 A 
ATOM     11  C   UNL     1      59.721  63.933  71.722  0.00  0.00    +0.000 A 
ATOM     12  C   UNL     1      59.166  64.415  72.097  0.00  0.00    +0.000 A 
ATOM     13  C   UNL     1      61.372  65.334  71.458  0.00  0.00    +0.000 A 
ATOM     14  C   UNL     1      61.554  66.123  71.619  0.00  0.00    +0.000 A 
ATOM     15  C   UNL     1      62.289  66.429  71.405  0.00  0.00    +0.000 A 
ATOM     16  N   UNL     1      62.843  65.947  71.031  0.00  0.00    +0.000 NA
ATOM     17  C   UNL     1      62.663  65.158  70.869  0.00  0.00    +0.000 A 
ATOM     18  C   UNL     1      63.095  64.556  70.508  0.00  0.00    +0.000 A 
ATOM     19  C   UNL     1      62.628  63.877  70.499  0.00  0.00    +0.000 A 
ATOM     20  N   UNL     1      61.905  64.060  70.854  0.00  0.00    +0.000 NA
ATOM     21  N   UNL     1      61.927  64.852  71.082  0.00  0.00    +0.000 N 
ATOM     22  C   UNL     1      63.862  64.621  70.210  0.00  0.00    +0.000 C 
ATOM     23  N   UNL     1      64.628  64.685  69.911  0.00  0.00    +0.000 NA
ENDROOT
TORSDOF 0
ENDMDL
MODEL 8
REMARK VINA RESULT:    -9.199      4.834      5.515
REMARK INTER + INTRA:          -9.199
REMARK INTER:                  -9.199
REMARK INTRA:                   0.000
REMARK UNBOUND:                 0.000
ROOT
REMARK  Name = zaleplon
REMARK                            x       y       z     vdW  Elec       q    Type
REMARK                         _______ _______ _______ _____ _____    ______ ____
ATOM      1  C   UNL     1      64.461  64.655  70.143  0.00  0.00    +0.000 C 
ATOM      2  C   UNL     1      63.746  64.499  70.524  0.00  0.00    +0.000 C 
ATOM      3  N   UNL     1      63.222  65.115  70.687  0.00  0.00    +0.000 N 
ATOM      4  C   UNL     1      63.413  65.887  70.469  0.00  0.00    +0.000 C 
ATOM      5  C   UNL     1      62.889  66.503  70.632  0.00  0.00    +0.000 C 
ATOM      6  O   UNL     1      64.127  66.044  70.087  0.00  0.00    +0.000 OA
ATOM      7  C   UNL     1      62.507  64.958  71.068  0.00  0.00    +0.000 A 
ATOM      8  C   UNL     1      61.983  65.574  71.231  0.00  0.00    +0.000 A 
ATOM      9  C   UNL     1      61.268  65.418  71.612  0.00  0.00    +0.000 A 
ATOM     10  C   UNL     1      61.078  64.645  71.831  0.00  0.00    +0.000 A 
ATOM     11  C   UNL     1      61.602  64.029  71.668  0.00  0.00    +0.000 A 
ATOM     12  C   UNL     1      62.316  64.186  71.286  0.00  0.00    +0.000 A 
ATOM     13  C   UNL     1      60.745  66.034  71.775  0.00  0.00    +0.000 A 
ATOM     14  C   UNL     1      60.935  66.806  71.557  0.00  0.00    +0.000 A 
ATOM     15  C   UNL     1      60.411  67.422  71.720  0.00  0.00    +0.000 A 
ATOM     16  N   UNL     1      59.697  67.266  72.101  0.00  0.00    +0.000 NA
ATOM     17  C   UNL     1      59.506  66.493  72.319  0.00  0.00    +0.000 A 
ATOM     18  C   UNL     1      58.847  66.174  72.699  0.00  0.00    +0.000 A 
ATOM     19  C   UNL     1      58.963  65.361  72.770  0.00  0.00    +0.000 A 
ATOM     20  N   UNL     1      59.695  65.177  72.435  0.00  0.00    +0.000 NA
ATOM     21  N   UNL     1      60.030  65.877  72.156  0.00  0.00    +0.000 N 
ATOM     22  C   UNL     1      58.187  66.595  72.961  0.00  0.00    +0.000 C 
ATOM     23  N   UNL     1      57.527  67.014  73.222  0.00  0.00    +0.000 NA
ENDROOT
TORSDOF 0
ENDMDL
MODEL 9
REMARK VINA RESULT:    -8.989     24.909     25.686
REMARK INTER + INTRA:          -8.989
REMARK INTER:                  -8.989
REMARK INTRA:                   0.000
REMARK UNBOUND:                 0.000
ROOT
REMARK  Name = zaleplon
REMARK                            x       y       z     vdW  Elec       q    Type
REMARK                         _______ _______ _______ _____ _____    ______ ____
ATOM      1  C   UNL     1      72.403  78.932  48.098  0.00  0.00    +0.000 C 
ATOM      2  C   UNL     1      71.735  79.015  48.574  0.00  0.00    +0.000 C 
ATOM      3  N   UNL     1      71.774  79.462  49.267  0.00  0.00    +0.000 N 
ATOM      4  C   UNL     1      72.482  79.826  49.483  0.00  0.00    +0.000 C 
ATOM      5  C   UNL     1      72.521  80.273  50.175  0.00  0.00    +0.000 C 
ATOM      6  O   UNL     1      73.151  79.743  49.007  0.00  0.00    +0.000 OA
ATOM      7  C   UNL     1      71.105  79.544  49.742  0.00  0.00    +0.000 A 
ATOM      8  C   UNL     1      71.144  79.991  50.435  0.00  0.00    +0.000 A 
ATOM      9  C   UNL     1      70.476  80.074  50.911  0.00  0.00    +0.000 A 
ATOM     10  C   UNL     1      69.767  79.710  50.694  0.00  0.00    +0.000 A 
ATOM     11  C   UNL     1      69.728  79.263  50.002  0.00  0.00    +0.000 A 
ATOM     12  C   UNL     1      70.397  79.181  49.526  0.00  0.00    +0.000 A 
ATOM     13  C   UNL     1      70.515  80.521  51.602  0.00  0.00    +0.000 A 
ATOM     14  C   UNL     1      71.222  80.885  51.819  0.00  0.00    +0.000 A 
ATOM     15  C   UNL     1      71.261  81.332  52.512  0.00  0.00    +0.000 A 
ATOM     16  N   UNL     1      70.593  81.415  52.987  0.00  0.00    +0.000 NA
ATOM     17  C   UNL     1      69.885  81.051  52.771  0.00  0.00    +0.000 A 
ATOM     18  C   UNL     1      69.141  81.034  53.128  0.00  0.00    +0.000 A 
ATOM     19  C   UNL     1      68.642  80.578  52.656  0.00  0.00    +0.000 A 
ATOM     20  N   UNL     1      69.078  80.311  52.007  0.00  0.00    +0.000 NA
ATOM     21  N   UNL     1      69.845  80.604  52.079  0.00  0.00    +0.000 N 
ATOM     22  C   UNL     1      68.933  81.410  53.833  0.00  0.00    +0.000 C 
ATOM     23  N   UNL     1      68.724  81.784  54.537  0.00  0.00    +0.000 NA
ENDROOT
TORSDOF 0
ENDMDL
