MODEL 1
REMARK VINA RESULT:    -8.018      0.000      0.000
REMARK INTER + INTRA:          -8.018
REMARK INTER:                  -8.018
REMARK INTRA:                   0.000
REMARK UNBOUND:                 0.000
ROOT
REMARK  Name = zoledronic acid
REMARK                            x       y       z     vdW  Elec       q    Type
REMARK                         _______ _______ _______ _____ _____    ______ ____
ATOM      1  O   UNL     1      62.427  62.196  65.233  0.00  0.00    +0.000 OA
ATOM      2  C   UNL     1      61.623  62.011  65.238  0.00  0.00    +0.000 C 
ATOM      3  C   UNL     1      60.819  61.826  65.243  0.00  0.00    +0.000 C 
ATOM      4  N   UNL     1      60.348  62.048  65.884  0.00  0.00    +0.000 N 
ATOM      5  C   UNL     1      59.541  61.902  65.966  0.00  0.00    +0.000 A 
ATOM      6  C   UNL     1      59.297  62.220  66.687  0.00  0.00    +0.000 A 
ATOM      7  N   UNL     1      59.954  62.562  67.051  0.00  0.00    +0.000 NA
ATOM      8  C   UNL     1      60.604  62.456  66.554  0.00  0.00    +0.000 A 
ATOM      9  P   UNL     1      61.701  61.647  64.502  0.00  0.00    +0.000 P 
ATOM     10  O   UNL     1      61.781  61.283  63.765  0.00  0.00    +0.000 OA
ATOM     11  O   UNL     1      60.898  61.462  64.507  0.00  0.00    +0.000 OA
ATOM     12  O   UNL     1      62.506  61.832  64.496  0.00  0.00    +0.000 OA
ATOM     13  P   UNL     1      61.544  62.375  65.974  0.00  0.00    +0.000 P 
ATOM     14  O   UNL     1      60.741  62.190  65.980  0.00  0.00    +0.000 OA
ATOM     15  O   UNL     1      61.466  62.739  66.710  0.00  0.00    +0.000 OA
ATOM     16  O   UNL     1      62.348  62.560  65.969  0.00  0.00    +0.000 OA
ENDROOT
TORSDOF 0
ENDMDL
MODEL 2
REMARK VINA RESULT:    -7.773      1.336      2.716
REMARK INTER + INTRA:          -7.773
REMARK INTER:                  -7.773
REMARK INTRA:                   0.000
REMARK UNBOUND:                 0.000
ROOT
REMARK  Name = zoledronic acid
REMARK                            x       y       z     vdW  Elec       q    Type
REMARK                         _______ _______ _______ _____ _____    ______ ____
ATOM      1  O   UNL     1      60.155  62.396  66.902  0.00  0.00    +0.000 OA
ATOM      2  C   UNL     1      60.878  62.457  66.510  0.00  0.00    +0.000 C 
ATOM      3  C   UNL     1      61.602  62.518  66.118  0.00  0.00    +0.000 C 
ATOM      4  N   UNL     1      61.693  62.189  65.367  0.00  0.00    +0.000 N 
ATOM      5  C   UNL     1      62.380  62.206  64.910  0.00  0.00    +0.000 A 
ATOM      6  C   UNL     1      62.224  61.813  64.202  0.00  0.00    +0.000 A 
ATOM      7  N   UNL     1      61.442  61.552  64.221  0.00  0.00    +0.000 NA
ATOM      8  C   UNL     1      61.113  61.785  64.940  0.00  0.00    +0.000 A 
ATOM      9  P   UNL     1      61.191  62.872  67.150  0.00  0.00    +0.000 P 
ATOM     10  O   UNL     1      61.503  63.287  67.792  0.00  0.00    +0.000 OA
ATOM     11  O   UNL     1      61.914  62.933  66.759  0.00  0.00    +0.000 OA
ATOM     12  O   UNL     1      60.467  62.811  67.543  0.00  0.00    +0.000 OA
ATOM     13  P   UNL     1      60.566  62.042  65.869  0.00  0.00    +0.000 P 
ATOM     14  O   UNL     1      61.289  62.103  65.477  0.00  0.00    +0.000 OA
ATOM     15  O   UNL     1      60.253  61.627  65.228  0.00  0.00    +0.000 OA
ATOM     16  O   UNL     1      59.842  61.981  66.261  0.00  0.00    +0.000 OA
ENDROOT
TORSDOF 0
ENDMDL
MODEL 3
REMARK VINA RESULT:    -7.083      1.664      3.055
REMARK INTER + INTRA:          -7.083
REMARK INTER:                  -7.083
REMARK INTRA:                   0.000
REMARK UNBOUND:                 0.000
ROOT
REMARK  Name = zoledronic acid
REMARK                            x       y       z     vdW  Elec       q    Type
REMARK                         _______ _______ _______ _____ _____    ______ ____
ATOM      1  O   UNL     1      61.657  63.476  68.216  0.00  0.00    +0.000 OA
ATOM      2  C   UNL     1      60.893  63.256  67.997  0.00  0.00    +0.000 C 
ATOM      3  C   UNL     1      60.129  63.035  67.777  0.00  0.00    +0.000 C 
ATOM      4  N   UNL     1      60.005  62.620  67.075  0.00  0.00    +0.000 N 
ATOM      5  C   UNL     1      59.276  62.364  66.785  0.00  0.00    +0.000 A 
ATOM      6  C   UNL     1      59.409  61.974  66.071  0.00  0.00    +0.000 A 
ATOM      7  N   UNL     1      60.220  61.988  65.919  0.00  0.00    +0.000 NA
ATOM      8  C   UNL     1      60.588  62.387  66.539  0.00  0.00    +0.000 A 
ATOM      9  P   UNL     1      60.595  63.608  68.680  0.00  0.00    +0.000 P 
ATOM     10  O   UNL     1      60.297  63.961  69.364  0.00  0.00    +0.000 OA
ATOM     11  O   UNL     1      59.831  63.388  68.461  0.00  0.00    +0.000 OA
ATOM     12  O   UNL     1      61.360  63.829  68.900  0.00  0.00    +0.000 OA
ATOM     13  P   UNL     1      61.191  62.903  67.313  0.00  0.00    +0.000 P 
ATOM     14  O   UNL     1      60.427  62.683  67.093  0.00  0.00    +0.000 OA
ATOM     15  O   UNL     1      61.490  62.550  66.629  0.00  0.00    +0.000 OA
ATOM     16  O   UNL     1      61.956  63.123  67.532  0.00  0.00    +0.000 OA
ENDROOT
TORSDOF 0
ENDMDL
MODEL 4
REMARK VINA RESULT:    -7.043      1.980      2.853
REMARK INTER + INTRA:          -7.043
REMARK INTER:                  -7.043
REMARK INTRA:                   0.000
REMARK UNBOUND:                 0.000
ROOT
REMARK  Name = zoledronic acid
REMARK                            x       y       z     vdW  Elec       q    Type
REMARK                         _______ _______ _______ _____ _____    ______ ____
ATOM      1  O   UNL     1      60.320  62.021  66.982  0.00  0.00    +0.000 OA
ATOM      2  C   UNL     1      60.888  62.546  67.267  0.00  0.00    +0.000 C 
ATOM      3  C   UNL     1      61.458  63.071  67.553  0.00  0.00    +0.000 C 
ATOM      4  N   UNL     1      61.464  63.279  68.351  0.00  0.00    +0.000 N 
ATOM      5  C   UNL     1      61.995  63.794  68.715  0.00  0.00    +0.000 A 
ATOM      6  C   UNL     1      61.799  63.840  69.514  0.00  0.00    +0.000 A 
ATOM      7  N   UNL     1      61.146  63.354  69.645  0.00  0.00    +0.000 NA
ATOM      8  C   UNL     1      60.938  63.007  68.927  0.00  0.00    +0.000 A 
ATOM      9  P   UNL     1      61.210  62.610  66.510  0.00  0.00    +0.000 P 
ATOM     10  O   UNL     1      61.531  62.673  65.753  0.00  0.00    +0.000 OA
ATOM     11  O   UNL     1      61.779  63.134  66.795  0.00  0.00    +0.000 OA
ATOM     12  O   UNL     1      60.641  62.085  66.224  0.00  0.00    +0.000 OA
ATOM     13  P   UNL     1      60.567  62.483  68.024  0.00  0.00    +0.000 P 
ATOM     14  O   UNL     1      61.136  63.007  68.310  0.00  0.00    +0.000 OA
ATOM     15  O   UNL     1      60.245  62.419  68.781  0.00  0.00    +0.000 OA
ATOM     16  O   UNL     1      59.998  61.957  67.738  0.00  0.00    +0.000 OA
ENDROOT
TORSDOF 0
ENDMDL
MODEL 5
REMARK VINA RESULT:    -6.832     25.122     25.738
REMARK INTER + INTRA:          -6.832
REMARK INTER:                  -6.832
REMARK INTRA:                   0.000
REMARK UNBOUND:                 0.000
ROOT
REMARK  Name = zoledronic acid
REMARK                            x       y       z     vdW  Elec       q    Type
REMARK                         _______ _______ _______ _____ _____    ______ ____
ATOM      1  O   UNL     1      71.854  78.576  48.373  0.00  0.00    +0.000 OA
ATOM      2  C   UNL     1      71.698  79.114  48.978  0.00  0.00    +0.000 C 
ATOM      3  C   UNL     1      71.542  79.652  49.584  0.00  0.00    +0.000 C 
ATOM      4  N   UNL     1      70.827  79.616  49.995  0.00  0.00    +0.000 N 
ATOM      5  C   UNL     1      70.595  80.114  50.610  0.00  0.00    +0.000 A 
ATOM      6  C   UNL     1      69.844  79.881  50.857  0.00  0.00    +0.000 A 
ATOM      7  N   UNL     1      69.612  79.238  50.395  0.00  0.00    +0.000 NA
ATOM      8  C   UNL     1      70.219  79.074  49.862  0.00  0.00    +0.000 A 
ATOM      9  P   UNL     1      72.433  79.467  48.854  0.00  0.00    +0.000 P 
ATOM     10  O   UNL     1      73.169  79.820  48.729  0.00  0.00    +0.000 OA
ATOM     11  O   UNL     1      72.278  80.005  49.459  0.00  0.00    +0.000 OA
ATOM     12  O   UNL     1      72.589  78.928  48.248  0.00  0.00    +0.000 OA
ATOM     13  P   UNL     1      70.963  78.761  49.103  0.00  0.00    +0.000 P 
ATOM     14  O   UNL     1      70.807  79.299  49.708  0.00  0.00    +0.000 OA
ATOM     15  O   UNL     1      70.228  78.408  49.228  0.00  0.00    +0.000 OA
ATOM     16  O   UNL     1      71.119  78.222  48.497  0.00  0.00    +0.000 OA
ENDROOT
TORSDOF 0
ENDMDL
MODEL 6
REMARK VINA RESULT:    -6.705      7.248      8.200
REMARK INTER + INTRA:          -6.705
REMARK INTER:                  -6.705
REMARK INTRA:                   0.000
REMARK UNBOUND:                 0.000
ROOT
REMARK  Name = zoledronic acid
REMARK                            x       y       z     vdW  Elec       q    Type
REMARK                         _______ _______ _______ _____ _____    ______ ____
ATOM      1  O   UNL     1      66.428  67.234  70.609  0.00  0.00    +0.000 OA
ATOM      2  C   UNL     1      65.779  66.846  70.935  0.00  0.00    +0.000 C 
ATOM      3  C   UNL     1      65.128  66.456  71.262  0.00  0.00    +0.000 C 
ATOM      4  N   UNL     1      64.474  66.279  70.791  0.00  0.00    +0.000 N 
ATOM      5  C   UNL     1      63.788  65.895  71.039  0.00  0.00    +0.000 A 
ATOM      6  C   UNL     1      63.281  65.834  70.392  0.00  0.00    +0.000 A 
ATOM      7  N   UNL     1      63.654  66.182  69.743  0.00  0.00    +0.000 NA
ATOM      8  C   UNL     1      64.391  66.457  69.990  0.00  0.00    +0.000 A 
ATOM      9  P   UNL     1      66.158  66.824  71.667  0.00  0.00    +0.000 P 
ATOM     10  O   UNL     1      66.539  66.804  72.399  0.00  0.00    +0.000 OA
ATOM     11  O   UNL     1      65.509  66.435  71.994  0.00  0.00    +0.000 OA
ATOM     12  O   UNL     1      66.809  67.214  71.341  0.00  0.00    +0.000 OA
ATOM     13  P   UNL     1      65.398  66.866  70.203  0.00  0.00    +0.000 P 
ATOM     14  O   UNL     1      64.748  66.477  70.530  0.00  0.00    +0.000 OA
ATOM     15  O   UNL     1      65.018  66.887  69.471  0.00  0.00    +0.000 OA
ATOM     16  O   UNL     1      66.048  67.256  69.877  0.00  0.00    +0.000 OA
ENDROOT
TORSDOF 0
ENDMDL
MODEL 7
REMARK VINA RESULT:    -6.653     25.456     26.121
REMARK INTER + INTRA:          -6.653
REMARK INTER:                  -6.653
REMARK INTRA:                   0.000
REMARK UNBOUND:                 0.000
ROOT
REMARK  Name = zoledronic acid
REMARK                            x       y       z     vdW  Elec       q    Type
REMARK                         _______ _______ _______ _____ _____    ______ ____
ATOM      1  O   UNL     1      70.442  78.363  49.364  0.00  0.00    +0.000 OA
ATOM      2  C   UNL     1      70.817  79.095  49.416  0.00  0.00    +0.000 C 
ATOM      3  C   UNL     1      71.193  79.829  49.467  0.00  0.00    +0.000 C 
ATOM      4  N   UNL     1      71.852  79.989  48.998  0.00  0.00    +0.000 N 
ATOM      5  C   UNL     1      72.282  80.692  48.990  0.00  0.00    +0.000 A 
ATOM      6  C   UNL     1      72.893  80.611  48.442  0.00  0.00    +0.000 A 
ATOM      7  N   UNL     1      72.840  79.857  48.111  0.00  0.00    +0.000 NA
ATOM      8  C   UNL     1      72.197  79.472  48.454  0.00  0.00    +0.000 A 
ATOM      9  P   UNL     1      70.273  79.334  49.987  0.00  0.00    +0.000 P 
ATOM     10  O   UNL     1      69.727  79.572  50.559  0.00  0.00    +0.000 OA
ATOM     11  O   UNL     1      70.647  80.067  50.039  0.00  0.00    +0.000 OA
ATOM     12  O   UNL     1      69.897  78.601  49.936  0.00  0.00    +0.000 OA
ATOM     13  P   UNL     1      71.362  78.857  48.844  0.00  0.00    +0.000 P 
ATOM     14  O   UNL     1      71.737  79.590  48.896  0.00  0.00    +0.000 OA
ATOM     15  O   UNL     1      71.907  78.618  48.272  0.00  0.00    +0.000 OA
ATOM     16  O   UNL     1      70.987  78.124  48.792  0.00  0.00    +0.000 OA
ENDROOT
TORSDOF 0
ENDMDL
MODEL 8
REMARK VINA RESULT:    -6.635      6.877      7.593
REMARK INTER + INTRA:          -6.635
REMARK INTER:                  -6.635
REMARK INTRA:                   0.000
REMARK UNBOUND:                 0.000
ROOT
REMARK  Name = zoledronic acid
REMARK                            x       y       z     vdW  Elec       q    Type
REMARK                         _______ _______ _______ _____ _____    ______ ____
ATOM      1  O   UNL     1      58.691  66.951  72.137  0.00  0.00    +0.000 OA
ATOM      2  C   UNL     1      59.189  66.510  71.650  0.00  0.00    +0.000 C 
ATOM      3  C   UNL     1      59.688  66.069  71.162  0.00  0.00    +0.000 C 
ATOM      4  N   UNL     1      59.729  65.249  71.248  0.00  0.00    +0.000 N 
ATOM      5  C   UNL     1      60.199  64.738  70.803  0.00  0.00    +0.000 A 
ATOM      6  C   UNL     1      60.069  63.971  71.074  0.00  0.00    +0.000 A 
ATOM      7  N   UNL     1      59.518  64.007  71.687  0.00  0.00    +0.000 NA
ATOM      8  C   UNL     1      59.308  64.797  71.795  0.00  0.00    +0.000 A 
ATOM      9  P   UNL     1      59.429  67.201  71.268  0.00  0.00    +0.000 P 
ATOM     10  O   UNL     1      59.668  67.893  70.888  0.00  0.00    +0.000 OA
ATOM     11  O   UNL     1      59.926  66.761  70.781  0.00  0.00    +0.000 OA
ATOM     12  O   UNL     1      58.930  67.643  71.757  0.00  0.00    +0.000 OA
ATOM     13  P   UNL     1      58.950  65.818  72.031  0.00  0.00    +0.000 P 
ATOM     14  O   UNL     1      59.448  65.378  71.543  0.00  0.00    +0.000 OA
ATOM     15  O   UNL     1      58.711  65.127  72.412  0.00  0.00    +0.000 OA
ATOM     16  O   UNL     1      58.452  66.260  72.519  0.00  0.00    +0.000 OA
ENDROOT
TORSDOF 0
ENDMDL
MODEL 9
REMARK VINA RESULT:    -6.606      3.485      4.303
REMARK INTER + INTRA:          -6.606
REMARK INTER:                  -6.606
REMARK INTRA:                   0.000
REMARK UNBOUND:                 0.000
ROOT
REMARK  Name = zoledronic acid
REMARK                            x       y       z     vdW  Elec       q    Type
REMARK                         _______ _______ _______ _____ _____    ______ ____
ATOM      1  O   UNL     1      60.787  63.131  68.014  0.00  0.00    +0.000 OA
ATOM      2  C   UNL     1      61.037  63.036  68.794  0.00  0.00    +0.000 C 
ATOM      3  C   UNL     1      61.287  62.941  69.576  0.00  0.00    +0.000 C 
ATOM      4  N   UNL     1      61.807  63.486  69.911  0.00  0.00    +0.000 N 
ATOM      5  C   UNL     1      62.104  63.464  70.681  0.00  0.00    +0.000 A 
ATOM      6  C   UNL     1      62.602  64.113  70.781  0.00  0.00    +0.000 A 
ATOM      7  N   UNL     1      62.614  64.537  70.074  0.00  0.00    +0.000 NA
ATOM      8  C   UNL     1      62.123  64.150  69.536  0.00  0.00    +0.000 A 
ATOM      9  P   UNL     1      60.580  62.352  68.858  0.00  0.00    +0.000 P 
ATOM     10  O   UNL     1      60.123  61.668  68.920  0.00  0.00    +0.000 OA
ATOM     11  O   UNL     1      60.830  62.257  69.638  0.00  0.00    +0.000 OA
ATOM     12  O   UNL     1      60.330  62.447  68.077  0.00  0.00    +0.000 OA
ATOM     13  P   UNL     1      61.494  63.720  68.732  0.00  0.00    +0.000 P 
ATOM     14  O   UNL     1      61.743  63.625  69.512  0.00  0.00    +0.000 OA
ATOM     15  O   UNL     1      61.950  64.404  68.668  0.00  0.00    +0.000 OA
ATOM     16  O   UNL     1      61.244  63.815  67.951  0.00  0.00    +0.000 OA
ENDROOT
TORSDOF 0
ENDMDL
