MODEL 1
REMARK VINA RESULT:   -13.960      0.000      0.000
REMARK INTER + INTRA:         -13.960
REMARK INTER:                 -13.960
REMARK INTRA:                   0.000
REMARK UNBOUND:                 0.000
ROOT
REMARK  Name = zuclopenthixol acetate
REMARK                            x       y       z     vdW  Elec       q    Type
REMARK                         _______ _______ _______ _____ _____    ______ ____
ATOM      1  C   UNL     1      60.980  65.838  73.057  0.00  0.00    +0.000 C 
ATOM      2  C   UNL     1      61.308  65.579  72.346  0.00  0.00    +0.000 C 
ATOM      3  O   UNL     1      62.099  65.735  72.175  0.00  0.00    +0.000 OA
ATOM      4  O   UNL     1      60.842  65.164  71.804  0.00  0.00    +0.000 OA
ATOM      5  C   UNL     1      61.170  64.905  71.093  0.00  0.00    +0.000 C 
ATOM      6  C   UNL     1      60.705  64.490  70.553  0.00  0.00    +0.000 C 
ATOM      7  N   UNL     1      61.031  64.230  69.841  0.00  0.00    +0.000 NA
ATOM      8  C   UNL     1      60.567  63.816  69.301  0.00  0.00    +0.000 C 
ATOM      9  C   UNL     1      60.894  63.556  68.588  0.00  0.00    +0.000 C 
ATOM     10  N   UNL     1      61.687  63.712  68.418  0.00  0.00    +0.000 NA
ATOM     11  C   UNL     1      62.014  63.453  67.706  0.00  0.00    +0.000 C 
ATOM     12  C   UNL     1      61.549  63.038  67.165  0.00  0.00    +0.000 C 
ATOM     13  C   UNL     1      61.876  62.779  66.454  0.00  0.00    +0.000 C 
ATOM     14  C   UNL     1      61.411  62.364  65.913  0.00  0.00    +0.000 C 
ATOM     15  C   UNL     1      61.739  62.105  65.201  0.00  0.00    +0.000 A 
ATOM     16  C   UNL     1      62.530  62.260  65.030  0.00  0.00    +0.000 A 
ATOM     17  C   UNL     1      62.858  62.001  64.319  0.00  0.00    +0.000 A 
ATOM     18  C   UNL     1      62.393  61.586  63.778  0.00  0.00    +0.000 A 
ATOM     19  C   UNL     1      61.600  61.430  63.949  0.00  0.00    +0.000 A 
ATOM     20  C   UNL     1      61.274  61.690  64.660  0.00  0.00    +0.000 A 
ATOM     21  S   UNL     1      60.481  61.534  64.831  0.00  0.00    +0.000 S 
ATOM     22  C   UNL     1      60.155  61.793  65.543  0.00  0.00    +0.000 A 
ATOM     23  C   UNL     1      60.619  62.208  66.084  0.00  0.00    +0.000 A 
ATOM     24  C   UNL     1      60.292  62.467  66.795  0.00  0.00    +0.000 A 
ATOM     25  C   UNL     1      59.500  62.311  66.966  0.00  0.00    +0.000 A 
ATOM     26 CL   UNL     1      59.172  62.570  67.678  0.00  0.00    +0.000 Cl
ATOM     27  C   UNL     1      59.036  61.896  66.426  0.00  0.00    +0.000 A 
ATOM     28  C   UNL     1      59.363  61.637  65.713  0.00  0.00    +0.000 A 
ATOM     29  C   UNL     1      62.151  64.127  68.958  0.00  0.00    +0.000 C 
ATOM     30  C   UNL     1      61.824  64.386  69.670  0.00  0.00    +0.000 C 
ENDROOT
TORSDOF 0
ENDMDL
MODEL 2
REMARK VINA RESULT:   -12.970      2.817      3.895
REMARK INTER + INTRA:         -12.970
REMARK INTER:                 -12.970
REMARK INTRA:                   0.000
REMARK UNBOUND:                 0.000
ROOT
REMARK  Name = zuclopenthixol acetate
REMARK                            x       y       z     vdW  Elec       q    Type
REMARK                         _______ _______ _______ _____ _____    ______ ____
ATOM      1  C   UNL     1      66.961  67.227  72.410  0.00  0.00    +0.000 C 
ATOM      2  C   UNL     1      66.488  66.961  71.788  0.00  0.00    +0.000 C 
ATOM      3  O   UNL     1      66.607  67.251  71.026  0.00  0.00    +0.000 OA
ATOM      4  O   UNL     1      65.896  66.403  71.930  0.00  0.00    +0.000 OA
ATOM      5  C   UNL     1      65.423  66.137  71.309  0.00  0.00    +0.000 C 
ATOM      6  C   UNL     1      64.832  65.580  71.451  0.00  0.00    +0.000 C 
ATOM      7  N   UNL     1      64.358  65.313  70.830  0.00  0.00    +0.000 NA
ATOM      8  C   UNL     1      63.767  64.757  70.972  0.00  0.00    +0.000 C 
ATOM      9  C   UNL     1      63.294  64.490  70.350  0.00  0.00    +0.000 C 
ATOM     10  N   UNL     1      63.413  64.781  69.587  0.00  0.00    +0.000 NA
ATOM     11  C   UNL     1      62.939  64.514  68.966  0.00  0.00    +0.000 C 
ATOM     12  C   UNL     1      62.348  63.957  69.108  0.00  0.00    +0.000 C 
ATOM     13  C   UNL     1      61.875  63.691  68.487  0.00  0.00    +0.000 C 
ATOM     14  C   UNL     1      61.283  63.133  68.629  0.00  0.00    +0.000 C 
ATOM     15  C   UNL     1      60.810  62.867  68.007  0.00  0.00    +0.000 A 
ATOM     16  C   UNL     1      60.928  63.158  67.245  0.00  0.00    +0.000 A 
ATOM     17  C   UNL     1      60.455  62.892  66.623  0.00  0.00    +0.000 A 
ATOM     18  C   UNL     1      59.864  62.335  66.764  0.00  0.00    +0.000 A 
ATOM     19  C   UNL     1      59.745  62.043  67.528  0.00  0.00    +0.000 A 
ATOM     20  C   UNL     1      60.218  62.310  68.149  0.00  0.00    +0.000 A 
ATOM     21  S   UNL     1      60.099  62.019  68.912  0.00  0.00    +0.000 S 
ATOM     22  C   UNL     1      60.573  62.285  69.533  0.00  0.00    +0.000 A 
ATOM     23  C   UNL     1      61.164  62.843  69.391  0.00  0.00    +0.000 A 
ATOM     24  C   UNL     1      61.637  63.109  70.012  0.00  0.00    +0.000 A 
ATOM     25  C   UNL     1      61.519  62.818  70.775  0.00  0.00    +0.000 A 
ATOM     26 CL   UNL     1      61.992  63.084  71.397  0.00  0.00    +0.000 Cl
ATOM     27  C   UNL     1      60.927  62.261  70.917  0.00  0.00    +0.000 A 
ATOM     28  C   UNL     1      60.454  61.994  70.295  0.00  0.00    +0.000 A 
ATOM     29  C   UNL     1      64.004  65.338  69.445  0.00  0.00    +0.000 C 
ATOM     30  C   UNL     1      64.477  65.604  70.067  0.00  0.00    +0.000 C 
ENDROOT
TORSDOF 0
ENDMDL
MODEL 3
REMARK VINA RESULT:   -11.590      3.835      5.114
REMARK INTER + INTRA:         -11.590
REMARK INTER:                 -11.590
REMARK INTRA:                   0.000
REMARK UNBOUND:                 0.000
ROOT
REMARK  Name = zuclopenthixol acetate
REMARK                            x       y       z     vdW  Elec       q    Type
REMARK                         _______ _______ _______ _____ _____    ______ ____
ATOM      1  C   UNL     1      67.252  68.730  69.542  0.00  0.00    +0.000 C 
ATOM      2  C   UNL     1      66.881  68.052  69.828  0.00  0.00    +0.000 C 
ATOM      3  O   UNL     1      67.261  67.576  70.384  0.00  0.00    +0.000 OA
ATOM      4  O   UNL     1      66.127  67.849  69.557  0.00  0.00    +0.000 OA
ATOM      5  C   UNL     1      65.756  67.171  69.843  0.00  0.00    +0.000 C 
ATOM      6  C   UNL     1      65.003  66.968  69.573  0.00  0.00    +0.000 C 
ATOM      7  N   UNL     1      64.630  66.289  69.858  0.00  0.00    +0.000 NA
ATOM      8  C   UNL     1      63.879  66.087  69.588  0.00  0.00    +0.000 C 
ATOM      9  C   UNL     1      63.506  65.408  69.874  0.00  0.00    +0.000 C 
ATOM     10  N   UNL     1      63.887  64.932  70.431  0.00  0.00    +0.000 NA
ATOM     11  C   UNL     1      63.515  64.253  70.717  0.00  0.00    +0.000 C 
ATOM     12  C   UNL     1      62.762  64.051  70.446  0.00  0.00    +0.000 C 
ATOM     13  C   UNL     1      62.390  63.373  70.732  0.00  0.00    +0.000 C 
ATOM     14  C   UNL     1      61.637  63.169  70.461  0.00  0.00    +0.000 C 
ATOM     15  C   UNL     1      61.265  62.491  70.748  0.00  0.00    +0.000 A 
ATOM     16  C   UNL     1      61.645  62.015  71.304  0.00  0.00    +0.000 A 
ATOM     17  C   UNL     1      61.274  61.336  71.590  0.00  0.00    +0.000 A 
ATOM     18  C   UNL     1      60.521  61.134  71.319  0.00  0.00    +0.000 A 
ATOM     19  C   UNL     1      60.140  61.610  70.763  0.00  0.00    +0.000 A 
ATOM     20  C   UNL     1      60.513  62.288  70.477  0.00  0.00    +0.000 A 
ATOM     21  S   UNL     1      60.132  62.764  69.920  0.00  0.00    +0.000 S 
ATOM     22  C   UNL     1      60.504  63.442  69.635  0.00  0.00    +0.000 A 
ATOM     23  C   UNL     1      61.257  63.645  69.905  0.00  0.00    +0.000 A 
ATOM     24  C   UNL     1      61.629  64.323  69.619  0.00  0.00    +0.000 A 
ATOM     25  C   UNL     1      61.249  64.799  69.063  0.00  0.00    +0.000 A 
ATOM     26 CL   UNL     1      61.620  65.478  68.776  0.00  0.00    +0.000 Cl
ATOM     27  C   UNL     1      60.496  64.596  68.792  0.00  0.00    +0.000 A 
ATOM     28  C   UNL     1      60.124  63.917  69.078  0.00  0.00    +0.000 A 
ATOM     29  C   UNL     1      64.639  65.134  70.701  0.00  0.00    +0.000 C 
ATOM     30  C   UNL     1      65.011  65.813  70.415  0.00  0.00    +0.000 C 
ENDROOT
TORSDOF 0
ENDMDL
MODEL 4
REMARK VINA RESULT:   -11.017      4.839      6.538
REMARK INTER + INTRA:         -11.017
REMARK INTER:                 -11.017
REMARK INTRA:                   0.000
REMARK UNBOUND:                 0.000
ROOT
REMARK  Name = zuclopenthixol acetate
REMARK                            x       y       z     vdW  Elec       q    Type
REMARK                         _______ _______ _______ _____ _____    ______ ____
ATOM      1  C   UNL     1      67.157  67.624  69.892  0.00  0.00    +0.000 C 
ATOM      2  C   UNL     1      66.407  67.664  70.232  0.00  0.00    +0.000 C 
ATOM      3  O   UNL     1      66.156  68.359  70.598  0.00  0.00    +0.000 OA
ATOM      4  O   UNL     1      65.907  67.007  70.207  0.00  0.00    +0.000 OA
ATOM      5  C   UNL     1      65.157  67.047  70.547  0.00  0.00    +0.000 C 
ATOM      6  C   UNL     1      64.658  66.390  70.521  0.00  0.00    +0.000 C 
ATOM      7  N   UNL     1      63.907  66.429  70.861  0.00  0.00    +0.000 NA
ATOM      8  C   UNL     1      63.408  65.774  70.836  0.00  0.00    +0.000 C 
ATOM      9  C   UNL     1      62.657  65.813  71.177  0.00  0.00    +0.000 C 
ATOM     10  N   UNL     1      62.406  66.509  71.543  0.00  0.00    +0.000 NA
ATOM     11  C   UNL     1      61.656  66.548  71.883  0.00  0.00    +0.000 C 
ATOM     12  C   UNL     1      61.156  65.891  71.857  0.00  0.00    +0.000 C 
ATOM     13  C   UNL     1      60.406  65.931  72.197  0.00  0.00    +0.000 C 
ATOM     14  C   UNL     1      59.906  65.274  72.172  0.00  0.00    +0.000 C 
ATOM     15  C   UNL     1      59.156  65.314  72.513  0.00  0.00    +0.000 A 
ATOM     16  C   UNL     1      58.905  66.009  72.878  0.00  0.00    +0.000 A 
ATOM     17  C   UNL     1      58.154  66.049  73.219  0.00  0.00    +0.000 A 
ATOM     18  C   UNL     1      57.655  65.393  73.193  0.00  0.00    +0.000 A 
ATOM     19  C   UNL     1      57.906  64.696  72.827  0.00  0.00    +0.000 A 
ATOM     20  C   UNL     1      58.656  64.658  72.487  0.00  0.00    +0.000 A 
ATOM     21  S   UNL     1      58.908  63.961  72.121  0.00  0.00    +0.000 S 
ATOM     22  C   UNL     1      59.658  63.923  71.781  0.00  0.00    +0.000 A 
ATOM     23  C   UNL     1      60.157  64.579  71.806  0.00  0.00    +0.000 A 
ATOM     24  C   UNL     1      60.907  64.540  71.466  0.00  0.00    +0.000 A 
ATOM     25  C   UNL     1      61.159  63.844  71.100  0.00  0.00    +0.000 A 
ATOM     26 CL   UNL     1      61.910  63.804  70.760  0.00  0.00    +0.000 Cl
ATOM     27  C   UNL     1      60.660  63.188  71.075  0.00  0.00    +0.000 A 
ATOM     28  C   UNL     1      59.908  63.227  71.415  0.00  0.00    +0.000 A 
ATOM     29  C   UNL     1      62.905  67.164  71.568  0.00  0.00    +0.000 C 
ATOM     30  C   UNL     1      63.656  67.125  71.228  0.00  0.00    +0.000 C 
ENDROOT
TORSDOF 0
ENDMDL
MODEL 5
REMARK VINA RESULT:   -10.969     13.280     15.055
REMARK INTER + INTRA:         -10.969
REMARK INTER:                 -10.969
REMARK INTRA:                   0.000
REMARK UNBOUND:                 0.000
ROOT
REMARK  Name = zuclopenthixol acetate
REMARK                            x       y       z     vdW  Elec       q    Type
REMARK                         _______ _______ _______ _____ _____    ______ ____
ATOM      1  C   UNL     1      61.611  59.925  51.738  0.00  0.00    +0.000 C 
ATOM      2  C   UNL     1      61.792  60.518  52.283  0.00  0.00    +0.000 C 
ATOM      3  O   UNL     1      62.162  60.326  52.994  0.00  0.00    +0.000 OA
ATOM      4  O   UNL     1      61.601  61.304  52.116  0.00  0.00    +0.000 OA
ATOM      5  C   UNL     1      61.781  61.896  52.660  0.00  0.00    +0.000 C 
ATOM      6  C   UNL     1      61.591  62.681  52.493  0.00  0.00    +0.000 C 
ATOM      7  N   UNL     1      61.771  63.275  53.037  0.00  0.00    +0.000 NA
ATOM      8  C   UNL     1      61.581  64.059  52.870  0.00  0.00    +0.000 C 
ATOM      9  C   UNL     1      61.761  64.653  53.415  0.00  0.00    +0.000 C 
ATOM     10  N   UNL     1      62.132  64.460  54.127  0.00  0.00    +0.000 NA
ATOM     11  C   UNL     1      62.312  65.053  54.671  0.00  0.00    +0.000 C 
ATOM     12  C   UNL     1      62.122  65.839  54.504  0.00  0.00    +0.000 C 
ATOM     13  C   UNL     1      62.302  66.431  55.048  0.00  0.00    +0.000 C 
ATOM     14  C   UNL     1      62.111  67.217  54.881  0.00  0.00    +0.000 C 
ATOM     15  C   UNL     1      62.292  67.810  55.426  0.00  0.00    +0.000 A 
ATOM     16  C   UNL     1      62.662  67.618  56.137  0.00  0.00    +0.000 A 
ATOM     17  C   UNL     1      62.843  68.211  56.682  0.00  0.00    +0.000 A 
ATOM     18  C   UNL     1      62.652  68.996  56.515  0.00  0.00    +0.000 A 
ATOM     19  C   UNL     1      62.281  69.188  55.803  0.00  0.00    +0.000 A 
ATOM     20  C   UNL     1      62.101  68.595  55.259  0.00  0.00    +0.000 A 
ATOM     21  S   UNL     1      61.730  68.787  54.547  0.00  0.00    +0.000 S 
ATOM     22  C   UNL     1      61.550  68.194  54.003  0.00  0.00    +0.000 A 
ATOM     23  C   UNL     1      61.741  67.409  54.170  0.00  0.00    +0.000 A 
ATOM     24  C   UNL     1      61.560  66.817  53.626  0.00  0.00    +0.000 A 
ATOM     25  C   UNL     1      61.190  67.008  52.914  0.00  0.00    +0.000 A 
ATOM     26 CL   UNL     1      61.009  66.415  52.369  0.00  0.00    +0.000 Cl
ATOM     27  C   UNL     1      60.999  67.793  52.747  0.00  0.00    +0.000 A 
ATOM     28  C   UNL     1      61.180  68.387  53.292  0.00  0.00    +0.000 A 
ATOM     29  C   UNL     1      62.322  63.676  54.294  0.00  0.00    +0.000 C 
ATOM     30  C   UNL     1      62.142  63.082  53.749  0.00  0.00    +0.000 C 
ENDROOT
TORSDOF 0
ENDMDL
